NOECHO

-- =============================================================================
-- 
-- Exported from Reek_base_sim
-- 
-- Exported by user akia from RMS11 at 2019-11-29 14:41:09
-- 
-- =============================================================================

MAPUNITS
'METRES  ' /

MAPAXES
456514.913 5939173.232
456514.913 5927115.548
467218.410 5927115.548 /

GRIDUNIT
'METRES  ' '        ' /

SPECGRID
  40  64  14   1  F  /

GDORIENT
INC INC INC DOWN RIGHT /

COORD
        0.000      8808.076    1732.971         0.117      8807.808    1784.385
      140.031      8889.116    1734.151       140.837      8888.848    1787.707
      279.949      8970.151    1737.163       281.688      8969.879    1791.109
      419.785      9051.168    1741.594       422.705      9050.926    1793.292
      559.465      9132.169    1744.469       563.893      9131.989    1793.182
      698.885      9213.161    1745.243       705.228      9213.066    1791.707
      838.378      9294.133    1746.619       846.683      9294.161    1789.395
      977.771      9375.092    1747.706       988.426      9375.280    1787.922
     1116.365      9456.006    1746.052      1130.366      9456.435    1787.628
     1254.885      9536.879    1743.969      1271.676      9537.603    1786.696
     1393.218      9617.693    1741.258      1411.598      9618.727    1783.297
     1531.695      9698.460    1739.454      1552.574      9699.925    1781.796
     1669.813      9779.130    1737.880      1694.202      9781.219    1780.610
     1807.968      9859.714    1738.234      1836.507      9862.660    1780.897
     1947.007      9940.286    1741.156      1978.510      9944.194    1781.696
     2086.424     10020.805    1745.049      2120.109     10025.826    1783.421
     2223.573     10100.795    1746.417      2256.318     10106.663    1780.833
     2361.113     10180.562    1747.676      2394.901     10187.823    1782.023
     2501.774     10260.789    1752.335      2539.084     10270.358    1789.629
     2642.854     10341.029    1758.333      2683.236     10353.312    1798.257
     2782.992     10420.853    1762.898      2825.844     10436.194    1805.188
     2922.773     10500.364    1765.390      2967.632     10519.055    1808.294
     3062.624     10579.734    1765.893      3108.988     10601.896    1809.798
     3203.361     10659.459    1765.557      3249.171     10684.198    1810.086
     3344.684     10739.576    1765.179      3386.838     10764.906    1808.441
     3482.841     10817.741    1763.142      3523.358     10844.474    1806.787
     3621.645     10896.173    1764.284      3660.997     10924.350    1808.402
     3762.443     10976.073    1769.548      3800.930     11005.643    1815.479
     3903.761     11056.594    1777.668      3939.078     11085.365    1823.605
     4044.123     11136.570    1790.143      4078.958     11166.286    1837.553
     4189.571     11221.244    1815.374      4225.810     11253.228    1863.102
     4334.939     11306.266    1840.119      4374.403     11341.902    1890.236
     4471.230     11383.254    1850.468      4513.573     11422.007    1905.574
     4614.992     11467.165    1871.165      4655.806     11504.770    1926.545
     4762.110     11554.262    1898.562      4798.667     11588.065    1947.784
     4904.228     11636.778    1914.890      4938.769     11668.819    1958.575
     5042.165     11715.416    1919.790      5074.453     11745.488    1959.641
     5181.921     11795.740    1922.357      5208.338     11820.465    1957.228
     5323.368     11877.643    1925.867      5346.500     11899.429    1959.888
     5464.637     11959.385    1929.762      5485.146     11978.847    1963.563
     5605.396     12040.644    1929.544      5623.181     12057.683    1963.387
       79.446      8670.443    1733.000        79.604      8670.166    1784.435
      219.492      8751.484    1734.192       220.360      8751.208    1787.749
      359.438      8832.518    1737.205       361.265      8832.243    1791.140
      499.333      8913.529    1741.620       502.359      8913.292    1793.305
      639.095      8994.532    1744.507       643.615      8994.360    1793.199
      778.646      9075.525    1745.297       785.014      9075.444    1791.725
      918.356      9156.506    1746.686       926.560      9156.544    1789.424
     1057.874      9237.474    1747.731      1068.392      9237.668    1787.945
     1196.523      9318.401    1746.086      1210.351      9318.826    1787.634
     1335.055      9399.288    1744.010      1351.582      9399.990    1786.694
     1473.422      9480.121    1741.329      1491.349      9481.103    1783.309
     1612.103      9560.922    1739.513      1632.369      9562.301    1781.803
     1750.729      9641.666    1737.943      1774.371      9643.621    1780.608
     1889.625      9722.363    1738.346      1917.062      9725.093    1780.901
     2029.550      9803.106    1741.315      2059.465      9806.680    1781.697
     2169.570      9883.808    1745.182      2201.356      9888.374    1783.418
     2307.264      9964.038    1746.554      2337.958      9969.348    1780.815
     2445.668     10044.175    1747.966      2477.126     10050.718    1782.172
     2587.104     10124.824    1752.688      2622.488     10133.630    1789.850
     2728.477     10205.443    1758.693      2768.128     10217.185    1798.513
     2868.889     10285.712    1763.180      2911.808     10300.723    1805.384
     3009.020     10365.755    1765.580      3053.403     10383.891    1808.425
     3149.023     10445.614    1765.978      3193.966     10466.758    1809.879
     3289.991     10525.885    1765.714      3333.396     10549.025    1810.154
     3431.420     10606.490    1765.159      3470.715     10629.857    1808.465
     3569.885     10685.295    1763.193      3607.341     10709.802    1806.910
     3708.384     10763.943    1764.544      3745.023     10790.002    1808.722
     3848.226     10843.493    1769.959      3884.232     10871.009    1815.873
     3988.177     10923.198    1778.040      4021.007     10949.828    1823.942
     4127.605     11002.580    1790.805      4159.363     11029.568    1837.898
     4271.710     11086.185    1815.978      4303.800     11114.403    1862.865
     4414.999     11169.380    1840.167      4449.917     11200.785    1889.473
     4550.966     11246.099    1850.505      4588.928     11280.682    1905.201
     4694.437     11329.730    1871.186      4730.742     11362.998    1925.836
     4840.573     11415.884    1898.357      4873.024     11445.696    1946.945
     4982.258     11497.982    1914.755      5014.259     11527.443    1958.372
     5120.819     11577.206    1919.785      5151.781     11605.802    1959.735
     5261.339     11658.236    1922.379      5287.227     11682.245    1957.418
     5403.496     11740.790    1925.918      5426.292     11762.049    1960.023
     5544.924     11822.674    1929.791      5565.517     11842.016    1963.665
     5685.386     11903.653    1929.571      5703.563     11920.878    1963.488
      158.890      8532.842    1731.389       159.084      8532.502    1780.796
      298.875      8613.884    1731.548       299.886      8613.556    1784.161
      438.745      8694.911    1734.201       440.869      8694.597    1787.726
      578.638      8775.909    1739.393       582.125      8775.650    1790.628
      718.302      8856.906    1741.629       723.352      8856.735    1789.110
      857.755      8937.893    1742.242       864.703      8937.827    1787.088
      997.161      9018.867    1742.607      1005.941      9018.926    1783.787
     1137.032      9099.836    1745.684      1147.676      9100.042    1782.993
     1275.409      9180.758    1743.981      1290.449      9181.211    1785.680
     1413.819      9261.643    1742.481      1432.057      9262.385    1785.660
     1551.844      9342.467    1739.728      1571.515      9343.480    1781.644
     1690.711      9423.287    1738.475      1713.040      9424.701    1781.055
     1829.425      9504.051    1736.722      1854.413      9505.961    1778.683
     1968.542      9584.792    1737.007      1997.953      9587.485    1780.194
     2107.894      9665.489    1738.835      2137.269      9668.716    1776.769
     2248.122      9746.221    1742.423      2281.089      9750.586    1780.678
     2384.973      9826.358    1742.396      2415.205      9831.196    1775.295
     2522.629      9906.359    1742.690      2553.447      9912.318    1775.561
     2664.897      9987.129    1747.506      2701.630      9995.682    1784.368
     2806.896     10067.869    1752.887      2848.138     10079.375    1791.664
     2947.867     10148.295    1756.941      2993.476     10163.453    1798.567
     3089.125     10228.767    1760.031      3134.665     10246.607    1801.730
     3228.900     10308.567    1760.411      3275.433     10329.739    1804.613
     3369.541     10388.667    1760.273      3413.959     10411.750    1805.073
     3510.772     10469.127    1760.112      3549.410     10491.673    1802.148
     3647.894     10547.057    1756.807      3686.048     10571.686    1800.983
     3786.078     10625.402    1758.193      3822.466     10651.039    1801.547
     3925.542     10704.567    1764.047      3963.044     10733.048    1811.012
     4066.615     10785.094    1775.144      4098.188     10810.595    1818.469
     4202.288     10861.292    1783.958      4234.771     10888.793    1831.704
     4349.461     10947.469    1814.692      4379.534     10973.795    1859.193
     4497.945     11035.286    1847.874      4530.115     11064.052    1894.410
     4627.474     11106.253    1849.728      4663.982     11139.265    1903.272
     4771.436     11190.297    1871.295      4806.750     11222.350    1924.455
     4922.644     11280.991    1905.255      4954.647     11310.041    1951.901
     5063.423     11362.233    1919.318      5093.954     11389.941    1959.595
     5197.605     11437.500    1918.221      5230.082     11466.998    1958.527
     5336.673     11517.193    1918.353      5362.362     11540.578    1951.319
     5479.613     11600.410    1921.971      5504.164     11622.844    1956.263
     5621.679     11682.838    1926.247      5644.072     11703.414    1959.812
     5762.288     11763.927    1926.011      5782.267     11782.428    1959.637
      238.348      8395.218    1732.481       238.565      8394.837    1777.356
      378.302      8476.273    1730.877       379.410      8475.899    1780.360
      518.065      8557.306    1731.664       520.452      8556.948    1783.206
      657.601      8638.315    1732.874       661.452      8638.034    1781.221
      797.184      8719.293    1736.248       802.418      8719.125    1778.552
      936.317      8800.269    1736.451       943.613      8800.210    1777.422
     1075.103      8881.225    1735.877      1085.611      8881.304    1779.412
     1214.686      8962.175    1739.382      1227.884      8962.426    1781.187
     1353.288      9043.092    1739.943      1370.401      9043.584    1783.146
     1493.835      9124.055    1744.358      1512.866      9124.779    1784.790
     1633.797      9204.994    1745.757      1657.243      9206.112    1789.736
     1773.375      9285.901    1745.323      1800.054      9287.450    1790.186
     1911.118      9366.661    1741.283      1937.060      9368.469    1780.701
     2048.114      9447.282    1737.955      2076.956      9449.685    1777.181
     2185.600      9527.826    1737.210      2216.784      9530.944    1774.992
     2325.071      9608.460    1739.280      2360.840      9612.778    1778.232
     2466.203      9689.240    1742.958      2503.393      9694.689    1780.711
     2603.632      9769.343    1742.481      2640.880      9775.969    1779.088
     2746.334      9850.282    1746.414      2789.125      9859.502    1785.250
     2886.252      9930.584    1748.111      2929.720      9941.891    1784.869
     3023.181     10009.760    1747.486      3071.912     10025.010    1787.756
     3164.326     10089.936    1749.854      3219.000     10110.343    1796.470
     3307.983     10171.156    1753.932      3360.373     10194.147    1801.453
     3452.344     10253.074    1758.315      3496.164     10275.295    1800.886
     3589.993     10331.643    1755.974      3634.978     10357.520    1803.077
     3728.247     10410.256    1755.327      3770.127     10437.117    1801.930
     3866.436     10488.622    1757.403      3905.845     10516.368    1802.304
     4006.887     10568.570    1765.490      4045.504     10597.993    1811.628
     4146.042     10647.638    1776.087      4183.474     10678.064    1824.855
     4290.800     10731.602    1799.711      4327.056     10762.486    1850.627
     4437.791     10817.974    1831.368      4466.307     10843.007    1872.631
     4576.321     10897.094    1851.096      4605.792     10923.431    1893.619
     4710.563     10972.345    1860.804      4743.407     11001.931    1908.412
     4861.676     11062.837    1893.148      4889.389     11087.822    1933.185
     5008.560     11149.525    1918.476      5040.367     11178.129    1961.248
     5140.799     11223.066    1919.418      5174.628     11253.399    1960.735
     5273.332     11296.919    1915.931      5307.638     11327.621    1955.830
     5413.592     11377.700    1916.913      5441.748     11402.886    1950.853
     5557.080     11461.366    1920.684      5581.932     11483.626    1952.967
     5699.900     11544.435    1925.591      5722.953     11565.156    1957.158
     5840.550     11625.550    1925.318      5861.223     11644.243    1956.949
      317.811      8257.584    1732.753       318.043      8257.177    1772.842
      457.865      8338.613    1734.811       459.054      8338.202    1780.672
      597.625      8419.665    1733.454       600.125      8419.285    1779.876
      737.016      8500.690    1732.188       741.194      8500.387    1777.111
      876.130      8581.680    1732.079       882.686      8581.475    1777.580
     1015.265      8662.644    1733.638      1024.071      8662.576    1776.523
     1154.123      8743.595    1734.505      1164.577      8743.671    1772.697
     1292.150      8824.518    1733.838      1307.025      8824.785    1776.223
     1431.981      8905.459    1738.735      1452.417      8906.005    1785.389
     1571.703      8986.395    1742.161      1595.135      8987.212    1786.380
     1712.114      9067.349    1744.930      1738.270      9068.480    1787.531
     1853.577      9148.355    1747.644      1881.205      9149.801    1787.850
     1992.852      9229.245    1746.156      2022.471      9231.098    1785.771
     2129.289      9309.892    1741.978      2161.563      9312.303    1781.695
     2263.347      9390.204    1736.711      2296.728      9393.199    1774.394
     2401.269      9470.679    1736.235      2442.062      9475.109    1777.191
     2539.635      9551.044    1736.054      2584.214      9556.940    1776.604
     2683.639      9632.125    1740.530      2737.057      9640.738    1785.952
     2824.317      9712.696    1741.484      2872.884      9722.229    1779.484
     2957.971      9791.493    1737.319      3005.177      9802.772    1771.853
     3096.732      9870.913    1737.167      3151.562      9886.859    1777.076
     3236.902      9950.380    1737.872      3295.824      9971.118    1783.646
     3383.125     10032.115    1743.782      3439.376     10055.775    1791.597
     3529.752     10114.726    1750.761      3578.977     10139.042    1795.908
     3671.763     10195.577    1754.129      3723.373     10224.933    1805.230
     3811.125     10274.987    1756.412      3857.393     10304.680    1805.187
     3948.088     10352.627    1758.296      3990.795     10382.966    1803.952
     4086.927     10431.407    1765.893      4127.813     10463.045    1811.647
     4226.332     10510.661    1778.971      4265.118     10542.865    1825.887
     4382.241     10604.510    1818.572      4420.823     10638.123    1868.380
     4524.985     10687.574    1845.926      4556.265     10715.462    1889.374
     4650.293     10754.916    1848.615      4683.542     10784.878    1895.763
     4793.592     10838.360    1873.179      4823.098     10864.974    1914.335
     4950.362     10933.913    1912.360      4975.340     10956.352    1945.678
     5087.052     11011.373    1921.434      5117.378     11038.466    1958.175
     5213.535     11079.825    1915.063      5249.632     11111.887    1954.998
     5350.989     11158.124    1916.437      5386.505     11189.509    1954.718
     5496.454     11243.504    1922.477      5527.385     11270.734    1957.700
     5637.743     11325.193    1923.476      5661.951     11346.467    1953.192
     5779.595     11407.374    1926.826      5802.638     11427.640    1956.248
     5920.252     11488.496    1926.609      5940.986     11506.800    1956.105
      397.249      8119.994    1727.822       397.514      8119.529    1767.138
      537.283      8200.999    1731.763       538.542      8200.561    1773.982
      677.157      8282.025    1733.185       679.632      8281.649    1773.016
      816.603      8363.052    1732.234       820.888      8362.742    1772.132
      955.421      8444.058    1730.274       962.934      8443.823    1775.534
     1093.792      8525.025    1729.293      1103.876      8524.946    1772.213
     1232.572      8605.968    1731.403      1244.768      8606.045    1770.975
     1370.412      8686.885    1731.397      1386.868      8687.154    1773.725
     1509.080      8767.796    1734.632      1532.501      8768.364    1783.043
     1648.073      8848.702    1738.140      1675.404      8849.557    1784.151
     1788.128      8929.628    1741.334      1818.159      8930.784    1784.055
     1928.741      9010.570    1743.398      1962.277      9012.124    1785.641
     2069.564      9091.520    1744.523      2105.600      9093.511    1786.460
     2207.082      9172.250    1741.883      2243.625      9174.660    1781.956
     2343.132      9252.780    1738.406      2379.197      9255.636    1775.931
     2476.599      9332.899    1732.330      2522.033      9337.259    1773.686
     2615.285      9413.293    1731.141      2665.667      9419.200    1771.418
     2761.554      9494.600    1735.658      2821.055      9503.140    1778.236
     2900.423      9574.859    1734.409      2954.511      9584.342    1769.468
     3029.434      9652.724    1727.227      3089.792      9665.738    1764.193
     3171.396      9732.678    1728.120      3235.559      9749.764    1768.249
     3313.066      9812.361    1729.038      3375.872      9832.949    1772.470
     3458.065      9893.192    1733.440      3522.019      9918.750    1783.399
     3602.244      9974.075    1738.465      3657.064     10000.351    1785.080
     3744.831     10054.554    1742.805      3799.749     10085.479    1793.311
     3889.902     10137.011    1751.272      3939.330     10168.960    1799.491
     4030.431     10217.029    1758.099      4076.618     10250.515    1803.965
     4171.089     10297.321    1769.249      4214.585     10332.030    1814.910
     4313.530     10379.395    1788.101      4360.327     10419.738    1841.882
     4454.109     10460.288    1810.756      4510.108     10511.126    1878.065
     4602.497     10548.708    1844.835      4638.430     10581.938    1893.146
     4734.406     10621.835    1858.473      4768.461     10653.340    1905.782
     4886.626     10713.535    1896.847      4917.627     10741.834    1937.999
     5033.373     10799.948    1921.165      5061.937     10825.656    1955.912
     5157.971     10866.531    1915.363      5190.981     10895.911    1951.250
     5286.599     10936.974    1911.897      5324.735     10970.599    1950.080
     5429.504     11020.100    1917.785      5466.436     11052.393    1954.919
     5573.956     11104.554    1921.644      5603.660     11130.336    1954.168
     5713.546     11184.776    1920.140      5740.288     11207.860    1951.968
     5857.844     11269.050    1926.000      5881.684     11289.577    1955.158
     5998.593     11350.253    1925.683      6020.150     11368.833    1954.990
      476.679      7982.416    1721.895       476.974      7981.901    1759.869
      616.578      8063.426    1724.510       617.988      8062.939    1765.666
      756.525      8144.408    1729.322       759.354      8143.983    1769.027
      896.100      8225.420    1730.322       901.192      8225.055    1772.010
     1034.846      8306.431    1728.694      1043.019      8306.176    1772.132
     1173.552      8387.400    1730.033      1185.133      8387.300    1773.599
     1311.356      8468.347    1729.671      1325.127      8468.417    1769.668
     1450.162      8549.282    1732.766      1471.223      8549.584    1781.906
     1588.658      8630.205    1736.073      1615.173      8630.770    1785.921
     1727.347      8711.118    1739.220      1755.700      8711.893    1782.515
     1865.040      8791.977    1739.538      1898.314      8793.087    1781.816
     2003.467      8872.824    1739.543      2041.449      8874.344    1781.739
     2142.777      8953.671    1739.336      2182.891      8955.585    1780.452
     2284.216      9034.602    1740.421      2325.825      9036.973    1780.864
     2423.321      9115.378    1738.687      2470.302      9118.594    1781.780
     2560.030      9195.901    1733.754      2613.997      9200.375    1777.319
     2694.571      9276.035    1727.350      2751.949      9281.874    1767.479
     2834.080      9356.459    1725.894      2896.350      9364.280    1762.867
     2972.628      9436.584    1724.257      3039.684      9446.882    1759.006
     3106.837      9515.515    1720.358      3181.596      9529.774    1757.933
     3250.771      9595.860    1721.615      3320.400      9612.558    1758.404
     3390.676      9674.999    1721.146      3465.607      9697.554    1766.229
     3533.111      9754.570    1723.214      3602.001      9780.420    1771.324
     3672.264      9832.548    1724.437      3737.753      9862.765    1775.171
     3818.681      9914.040    1731.819      3883.544      9950.111    1786.529
     3964.848      9996.456    1740.864      4016.533     10030.237    1787.128
     4104.508     10075.209    1747.661      4155.782     10113.581    1794.975
     4249.898     10158.838    1764.101      4300.375     10201.146    1814.452
     4398.420     10246.518    1790.377      4441.808     10286.210    1839.576
     4526.813     10316.131    1799.560      4595.623     10382.583    1882.040
     4690.316     10419.980    1853.056      4720.721     10449.900    1892.924
     4830.504     10500.703    1879.652      4860.239     10529.578    1919.979
     4980.802     10590.429    1915.586      5009.591     10617.417    1952.076
     5113.306     10663.357    1922.340      5146.958     10693.920    1960.105
     5236.583     10728.583    1916.405      5273.253     10761.193    1952.561
     5365.656     10799.446    1913.917      5402.903     10832.087    1948.126
     5507.269     10881.437    1917.965      5539.392     10909.260    1948.639
     5649.655     10964.095    1918.952      5675.272     10986.042    1946.448
     5789.192     11044.319    1916.618      5814.567     11065.855    1946.587
     5935.870     11130.571    1925.174      5959.285     11150.319    1953.081
     6076.690     11211.842    1924.729      6097.942     11229.722    1952.765
      556.112      7844.836    1716.132       556.413      7844.308    1750.772
      695.922      7925.832    1718.948       697.361      7925.344    1755.324
      835.753      8006.812    1723.322       838.589      8006.394    1758.226
      975.178      8087.817    1724.612       980.447      8087.445    1763.010
     1114.489      8168.799    1727.537      1122.934      8168.534    1767.670
     1253.739      8249.771    1731.356      1264.902      8249.665    1768.738
     1392.853      8330.741    1735.005      1409.220      8330.796    1777.478
     1530.470      8411.689    1735.002      1553.590      8411.962    1783.827
     1667.128      8492.599    1734.928      1694.135      8493.079    1781.736
     1804.853      8573.504    1736.937      1833.348      8574.151    1777.391
     1943.638      8654.411    1739.231      1979.415      8655.398    1781.118
     2080.699      8735.235    1738.158      2120.577      8736.554    1778.474
     2218.964      8816.049    1736.949      2266.979      8817.951    1781.497
     2361.164      8896.998    1737.662      2410.906      8899.360    1780.940
     2504.687      8978.037    1737.440      2562.857      8981.358    1784.053
     2646.829      9059.040    1734.047      2699.535      9062.684    1771.597
     2776.789      9139.054    1722.436      2835.785      9144.076    1758.845
     2910.542      9219.002    1716.702      2981.904      9226.628    1752.388
     3041.743      9298.199    1711.604      3123.256      9308.992    1746.168
     3183.228      9378.235    1710.892      3269.213      9392.497    1747.532
     3330.375      9459.126    1713.894      3410.401      9476.076    1749.928
     3468.097      9537.764    1712.987      3552.335      9560.602    1756.722
     3607.590      9616.104    1713.346      3684.862      9642.830    1760.805
     3748.309      9694.221    1715.915      3821.448      9726.167    1766.715
     3893.643      9774.342    1721.806      3965.485      9813.360    1777.000
     4037.569      9854.342    1727.858      4095.822      9892.751    1776.131
     4174.929      9930.055    1732.644      4231.396      9974.013    1781.786
     4320.890     10012.982    1748.509      4375.218     10061.635    1801.166
     4460.558     10091.559    1762.639      4505.011     10135.742    1813.512
     4596.163     10166.727    1778.017      4683.326     10259.549    1887.007
     4723.121     10233.529    1784.475      4816.857     10335.329    1906.622
     4930.466     10386.144    1900.212      4962.009     10419.108    1942.560
     5067.933     10461.804    1919.569      5095.893     10489.146    1954.056
     5189.764     10523.706    1915.708      5225.089     10556.371    1953.098
     5314.246     10589.784    1913.629      5352.562     10623.934    1948.629
     5449.213     10665.843    1917.787      5483.115     10695.363    1947.014
     5587.527     10744.948    1919.704      5617.142     10770.320    1947.245
     5729.416     10827.160    1920.602      5756.176     10849.755    1949.251
     5874.114     10911.708    1924.020      5898.511     10932.044    1953.040
     6018.498     10995.936    1930.035      6041.777     11015.148    1957.340
     6159.205     11077.104    1929.703      6180.428     11094.520    1957.168
      635.578      7707.196    1714.419       635.850      7706.720    1742.952
      775.235      7788.245    1713.414       776.657      7787.777    1744.981
      914.941      7869.217    1717.424       917.710      7868.820    1747.651
     1054.356      7950.207    1719.819      1059.479      7949.851    1753.348
     1193.262      8031.195    1722.062      1201.508      8030.934    1757.339
     1332.079      8112.163    1726.141      1343.353      8112.041    1759.886
     1471.681      8193.126    1732.334      1488.482      8193.146    1771.066
     1611.038      8274.100    1736.742      1632.868      8274.286    1778.456
     1747.363      8355.035    1735.776      1774.126      8355.394    1779.220
     1885.233      8435.972    1737.459      1914.367      8436.471    1776.744
     2022.706      8516.881    1738.045      2061.061      8517.677    1780.629
     2159.386      8597.735    1736.896      2202.418      8598.815    1777.829
     2298.152      8678.596    1735.943      2345.149      8680.030    1776.617
     2441.442      8759.583    1736.095      2492.062      8761.462    1776.358
     2587.856      8840.740    1734.874      2647.467      8843.437    1777.456
     2725.792      8921.548    1725.499      2787.338      8924.926    1764.476
     2864.658      9002.384    1717.125      2932.804      9006.928    1754.298
     2995.730      9082.518    1708.045      3073.765      9089.042    1742.494
     3131.826      9162.582    1703.352      3214.888      9171.669    1737.293
     3279.008      9243.810    1706.142      3364.280      9255.856    1739.520
     3416.234      9323.532    1706.863      3499.947      9338.861    1740.616
     3545.230      9400.655    1704.306      3626.067      9419.942    1741.454
     3689.760      9480.524    1708.897      3768.891      9505.112    1751.794
     3830.818      9559.051    1712.530      3911.312      9591.310    1762.089
     3971.236      9636.517    1714.599      4041.686      9672.946    1763.237
     4114.636      9715.151    1718.690      4174.594      9754.631    1765.028
     4252.279      9789.809    1722.903      4307.246      9834.313    1768.802
     4397.496      9871.115    1736.071      4447.461      9919.172    1784.195
     4538.608      9950.035    1748.746      4575.348      9990.561    1792.150
     4674.293     10022.526    1759.515      4707.675     10065.022    1805.924
     4800.400     10086.849    1766.517      4897.851     10213.593    1900.708
     5007.080     10250.290    1885.959      5036.631     10284.626    1926.411
     5142.636     10321.448    1904.085      5178.311     10358.070    1947.658
     5268.558     10386.151    1907.672      5305.202     10420.712    1944.990
     5396.343     10454.906    1911.578      5428.119     10483.275    1939.149
     5530.259     10530.011    1916.845      5562.093     10557.470    1943.234
     5666.660     10607.508    1918.997      5699.251     10635.019    1949.081
     5816.003     10695.892    1929.297      5843.466     10718.658    1958.673
     5961.458     10780.898    1934.562      5985.001     10800.110    1962.518
     6103.958     10863.454    1937.851      6127.305     10882.263    1964.876