NOECHO

-- =============================================================================
-- 
-- Exported from Reek_base_sim
-- 
-- Exported by user asny from RMS11 at 2020-02-19 16:30:29
-- 
-- =============================================================================

MAPUNITS
'METRES  ' /

MAPAXES
456514.867 5939174.287
456514.867 5927115.548
467218.093 5927115.548 /

GRIDUNIT
'METRES  ' '        ' /

SPECGRID
  40  64  14   1  F  /

GDORIENT
INC INC INC DOWN RIGHT /

COORD
        0.000      8808.157    1736.946         0.221      8807.704    1766.049
      139.975      8889.191    1739.261       140.968      8888.780    1768.895
      279.852      8970.208    1742.201       282.023      8969.796    1776.097
      419.499      9051.218    1743.107       423.428      9050.842    1781.131
      558.812      9132.211    1742.770       564.850      9131.939    1781.476
      698.082      9213.174    1745.210       706.105      9213.056    1781.112
      837.421      9294.123    1748.689       848.389      9294.180    1785.272
      976.807      9375.060    1751.202       991.015      9375.350    1788.719
     1115.604      9455.966    1750.356      1132.250      9456.521    1787.502
     1253.874      9536.816    1747.575      1273.092      9537.691    1787.085
     1391.269      9617.565    1743.281      1414.299      9618.902    1787.487
     1529.816      9698.315    1742.631      1557.718      9700.311    1789.125
     1668.427      9779.012    1742.253      1700.470      9781.776    1787.176
     1806.158      9859.543    1739.884      1839.126      9862.940    1781.000
     1942.699      9939.803    1737.740      1979.544      9944.313    1780.247
     2080.779     10020.064    1740.324      2122.062     10026.069    1784.521
     2219.464     10100.234    1744.258      2265.016     10108.105    1790.790
     2358.472     10180.263    1748.764      2405.185     10189.844    1795.272
     2499.219     10260.479    1755.199      2546.789     10272.041    1801.233
     2641.867     10341.102    1763.313      2690.555     10355.092    1808.088
     2781.988     10420.892    1767.673      2831.251     10437.586    1809.869
     2922.180     10500.491    1769.605      2971.498     10520.059    1809.931
     3062.929     10580.181    1769.494      3110.210     10601.865    1807.742
     3203.087     10659.560    1767.257      3247.398     10682.645    1804.344
     3341.793     10738.116    1763.566      3383.837     10762.527    1801.263
     3481.041     10816.917    1761.504      3523.369     10843.868    1802.738
     3620.509     10895.844    1761.598      3665.742     10927.041    1809.703
     3759.603     10974.492    1764.093      3807.377     11009.836    1819.810
     3900.272     11054.371    1771.273      3947.123     11091.199    1831.791
     4041.349     11134.781    1785.160      4085.933     11171.612    1846.288
     4186.603     11219.031    1811.667      4228.981     11255.400    1868.129
     4331.040     11303.017    1837.048      4373.982     11340.868    1891.248
     4468.641     11381.173    1850.209      4513.343     11421.240    1905.757
     4612.845     11465.371    1870.852      4655.511     11503.982    1923.376
     4762.173     11554.349    1898.277      4800.414     11589.159    1942.731
     4906.608     11638.958    1915.578      4941.500     11670.876    1953.898
     5044.458     11717.562    1919.923      5078.190     11748.580    1957.259
     5181.698     11795.579    1919.691      5212.615     11824.167    1957.929
     5322.238     11876.634    1922.115      5349.263     11901.778    1960.639
     5463.341     11958.212    1926.135      5486.726     11980.127    1963.937
     5604.139     12039.507    1925.911      5624.489     12058.738    1963.784
       79.450      8670.516    1736.997        79.705      8670.069    1766.108
      219.462      8751.548    1739.299       220.454      8751.152    1768.968
      359.375      8832.566    1742.231       361.534      8832.168    1776.102
      499.065      8913.577    1743.144       503.035      8913.211    1781.145
      638.451      8994.571    1742.846       644.645      8994.309    1781.500
      777.925      9075.536    1745.265       786.172      9075.433    1781.151
      917.547      9156.494    1748.751       928.761      9156.571    1785.312
     1057.155      9237.446    1751.253      1071.565      9237.757    1788.719
     1196.100      9318.369    1750.416      1212.512      9318.925    1787.501
     1334.336      9399.233    1747.612      1352.693      9400.071    1787.089
     1471.621      9479.994    1743.411      1493.331      9481.246    1787.490
     1610.223      9560.770    1742.741      1637.013      9562.657    1789.118
     1749.508      9641.547    1742.303      1780.806      9644.195    1787.159
     1888.256      9722.223    1739.944      1920.410      9725.458    1780.886
     2025.803      9802.679    1737.976      2061.542      9806.942    1780.271
     2164.491      9883.137    1740.559      2204.436      9888.791    1784.565
     2303.653      9963.532    1744.529      2347.604      9970.918    1790.869
     2442.968     10043.803    1749.041      2487.721     10052.736    1795.313
     2584.120     10124.328    1755.663      2629.482     10135.068    1801.359
     2726.960     10205.249    1763.674      2773.978     10218.441    1808.168
     2867.848     10285.594    1767.953      2915.969     10301.574    1809.862
     3009.107     10365.977    1769.809      3057.036     10384.691    1809.923
     3150.692     10446.492    1769.558      3195.736     10466.905    1807.651
     3291.434     10526.673    1767.193      3333.095     10548.193    1804.260
     3430.525     10605.979    1763.448      3469.782     10628.631    1801.387
     3569.870     10685.363    1761.546      3609.163     10710.264    1803.134
     3708.976     10764.548    1761.764      3750.901     10793.357    1810.258
     3846.855     10842.762    1764.428      3891.084     10875.393    1820.339
     3985.832     10921.684    1771.814      4028.754     10955.355    1832.112
     4125.524     11001.209    1785.948      4165.697     11034.339    1846.511
     4269.332     11084.379    1812.418      4306.534     11116.247    1867.827
     4411.490     11166.438    1837.180      4449.317     11199.704    1890.535
     4548.284     11243.900    1850.236      4588.138     11279.515    1905.377
     4691.866     11327.532    1870.770      4729.734     11361.661    1922.638
     4840.073     11415.456    1897.961      4874.528     11446.651    1941.869
     4984.234     11499.781    1915.379      5017.176     11529.722    1953.638
     5122.894     11579.124    1919.920      5155.314     11608.715    1957.303
     5261.005     11657.957    1919.714      5291.015     11685.479    1958.041
     5402.168     11739.583    1922.154      5428.575     11763.935    1960.754
     5543.436     11821.312    1926.157      5566.654     11842.862    1964.040
     5683.929     11902.324    1925.932      5704.452     11921.521    1963.883
      158.873      8532.952    1733.825       159.160      8532.451    1762.953
      298.822      8613.962    1736.609       299.818      8613.562    1764.133
      438.659      8694.968    1739.479       441.217      8694.505    1776.140
      578.319      8775.961    1741.215       582.879      8775.561    1780.432
      717.416      8856.950    1740.126       724.582      8856.678    1779.976
      857.063      8937.899    1743.436       865.738      8937.820    1777.030
      996.587      9018.848    1746.133      1008.818      9018.967    1781.961
     1136.352      9099.801    1748.756      1151.430      9100.152    1784.463
     1274.932      9180.711    1747.505      1291.844      9181.297    1782.980
     1413.271      9261.579    1745.868      1432.141      9262.436    1784.052
     1549.734      9342.300    1741.165      1573.584      9343.642    1786.063
     1688.590      9423.092    1741.293      1717.859      9425.082    1788.068
     1828.318      9503.911    1740.998      1861.902      9506.627    1785.829
     1966.667      9584.569    1737.644      1995.777      9587.349    1772.526
     2103.364      9664.955    1734.474      2142.974      9669.417    1778.911
     2243.136      9745.565    1738.079      2286.722      9751.375    1783.599
     2382.302      9825.992    1741.938      2431.208      9833.728    1790.582
     2520.867      9906.159    1745.490      2568.158      9915.049    1791.580
     2661.622      9986.576    1751.239      2708.193      9996.993    1795.464
     2805.724     10067.750    1759.257      2855.680     10081.065    1803.853
     2946.222     10147.943    1761.966      2996.003     10163.772    1803.182
     3089.285     10228.918    1764.231      3139.080     10247.719    1804.658
     3231.016     10309.494    1763.599      3274.412     10328.703    1800.072
     3372.187     10389.903    1761.645      3412.183     10410.260    1797.183
     3510.037     10468.553    1757.177      3549.536     10491.151    1795.128
     3650.114     10548.396    1756.616      3687.578     10572.031    1795.809
     3787.144     10626.213    1755.429      3829.375     10655.169    1803.258
     3924.877     10704.283    1758.827      3970.008     10737.558    1814.860
     4064.883     10783.977    1769.389      4107.588     10817.495    1828.553
     4200.259     10859.969    1778.980      4240.495     10893.169    1839.303
     4348.933     10947.206    1813.867      4383.813     10977.072    1866.437
     4494.583     11032.360    1844.989      4530.683     11064.044    1897.065
     4626.870     11105.880    1852.548      4664.523     11139.396    1905.912
     4768.911     11188.124    1871.573      4804.368     11219.874    1921.009
     4921.847     11280.227    1904.892      4955.241     11310.185    1947.286
     5066.368     11364.825    1921.330      5095.936     11391.381    1954.819
     5199.152     11438.892    1918.535      5230.024     11466.668    1953.069
     5335.167     11515.853    1915.224      5366.795     11544.381    1953.875
     5478.223     11599.161    1919.089      5505.080     11623.476    1956.180
     5620.044     11681.364    1923.239      5644.320     11703.446    1959.976
     5760.737     11762.542    1923.022      5782.356     11782.332    1959.782
      238.324      8395.338    1733.227       238.674      8394.728    1765.773
      378.230      8476.360    1734.819       379.553      8475.818    1769.108
      517.996      8557.364    1737.165       520.794      8556.856    1774.139
      657.665      8638.339    1739.694       662.357      8637.937    1776.240
      796.943      8719.312    1740.196       803.707      8719.071    1773.861
      935.824      8800.266    1740.226       945.316      8800.200    1772.855
     1074.618      8881.196    1740.855      1087.302      8881.337    1773.987
     1214.544      8962.137    1743.848      1231.164      8962.536    1779.333
     1354.457      9043.081    1745.741      1373.130      9043.729    1781.116
     1492.780      9123.955    1745.105      1513.532      9124.878    1782.902
     1634.743      9204.990    1750.495      1662.874      9206.520    1797.240
     1770.613      9285.664    1745.047      1802.427      9287.730    1790.322
     1907.621      9366.322    1740.797      1938.040      9368.653    1777.712
     2043.524      9446.787    1734.831      2071.924      9449.340    1766.237
     2185.691      9527.758    1737.622      2222.080      9531.602    1775.555
     2327.487      9608.713    1742.806      2365.947      9613.511    1779.750
     2463.793      9688.884    1743.414      2510.358      9695.770    1785.505
     2599.346      9768.650    1743.823      2652.411      9777.979    1790.461
     2742.820      9849.650    1750.818      2794.370      9860.463    1794.764
     2885.362      9930.487    1755.461      2939.071      9943.996    1798.801
     3026.431     10010.870    1756.739      3078.064     10026.523    1796.407
     3170.169     10092.077    1758.084      3223.595     10111.559    1799.508
     3314.409     10173.775    1759.207      3356.465     10191.996    1793.658
     3456.890     10255.058    1759.197      3500.653     10277.121    1796.955
     3593.560     10333.340    1755.349      3634.172     10356.562    1792.807
     3734.905     10414.208    1757.770      3784.311     10445.534    1806.625
     3871.761     10492.197    1758.565      3919.821     10525.408    1809.650
     4007.969     10569.412    1762.333      4058.369     10606.923    1821.353
     4145.877     10647.646    1772.644      4188.676     10681.627    1828.662
     4288.647     10729.892    1795.242      4330.666     10764.942    1855.020
     4436.798     10817.098    1830.302      4472.752     10848.103    1882.684
     4574.921     10895.863    1851.062      4610.758     10927.418    1902.155
     4711.566     10973.289    1865.771      4744.354     11002.468    1911.879
     4858.353     11059.796    1891.844      4887.037     11085.394    1931.003
     5008.030     11148.917    1918.875      5034.260     11172.301    1950.535
     5140.981     11223.147    1920.035      5167.802     11247.018    1948.777
     5275.314     11298.649    1918.443      5303.241     11323.474    1947.957
     5415.039     11378.962    1918.882      5442.644     11403.494    1950.704
     5556.508     11460.830    1920.322      5581.766     11483.299    1953.015
     5698.129     11542.832    1923.590      5722.899     11564.925    1958.274
     5839.004     11624.167    1923.393      5861.073     11643.942    1958.025
      317.830      8257.629    1736.346       318.148      8257.073    1764.242
      457.856      8338.666    1737.568       459.331      8338.056    1773.495
      597.608      8419.707    1737.558       600.553      8419.174    1773.714
      736.602      8500.752    1734.544       741.346      8500.352    1768.375
      875.585      8581.708    1735.388       883.836      8581.426    1772.510
     1014.600      8662.635    1736.945      1026.159      8662.569    1772.439
     1154.244      8743.564    1739.479      1167.589      8743.722    1770.253
     1291.881      8824.454    1737.341      1308.992      8824.866    1769.525
     1430.557      8905.339    1737.636      1453.022      8906.103    1775.013
     1572.366      8986.340    1743.356      1596.751      8987.386    1781.727
     1712.996      9067.308    1746.579      1741.556      9068.791    1787.654
     1852.216      9148.197    1746.718      1883.484      9150.116    1785.846
     1992.151      9229.113    1746.365      2026.405      9231.576    1783.679
     2126.844      9309.580    1739.922      2157.958      9312.190    1771.049
     2263.519      9390.076    1737.240      2299.946      9393.655    1771.489
     2403.925      9470.855    1740.339      2442.859      9475.362    1773.776
     2538.132      9550.749    1738.731      2592.986      9558.266    1782.450
     2680.476      9631.596    1743.909      2740.853      9641.430    1790.263
     2823.313      9712.535    1748.650      2889.767      9725.479    1797.917
     2959.272      9791.863    1746.516      3018.085      9805.705    1788.199
     3100.986      9872.141    1746.288      3162.178      9889.713    1788.909
     3244.810      9952.991    1745.917      3300.818      9972.648    1786.553
     3391.226     10035.166    1747.922      3434.081     10053.346    1781.089
     3537.014     10117.838    1751.453      3577.779     10138.283    1784.666
     3675.719     10197.287    1751.384      3718.325     10221.825    1788.206
     3817.723     10278.735    1756.476      3865.531     10309.509    1800.317
     3951.140     10354.465    1756.262      3999.187     10388.302    1803.247
     4087.432     10431.690    1762.215      4133.537     10466.776    1812.008
     4226.644     10510.944    1776.419      4266.900     10543.777    1824.813
     4379.497     10602.025    1813.860      4426.405     10642.257    1874.523
     4524.253     10686.808    1845.311      4562.237     10720.228    1897.700
     4650.923     10755.509    1851.740      4690.642     10790.928    1906.895
     4792.451     10837.315    1875.554      4827.267     10868.455    1922.956
     4951.350     10934.639    1917.320      4979.274     10959.552    1953.012
     5087.927     11012.008    1925.187      5117.677     11038.442    1958.456
     5213.979     11080.122    1918.341      5239.483     11102.679    1943.768
     5348.818     11156.118    1916.718      5375.612     11179.711    1943.179
     5495.141     11242.249    1923.131      5520.946     11264.888    1951.161
     5634.267     11322.059    1921.367      5662.515     11346.788    1955.839
     5776.708     11404.770    1925.035      5803.942     11428.609    1960.567
     5917.751     11486.250    1924.783      5942.091     11507.606    1960.364
      397.276      8120.025    1732.483       397.636      8119.396    1761.535
      537.327      8201.031    1735.062       538.788      8200.430    1768.325
      677.223      8282.049    1736.753       680.469      8281.467    1774.015
      816.437      8363.088    1734.876       822.163      8362.615    1772.587
      955.175      8444.070    1734.241       964.174      8443.773    1771.240
     1094.031      8525.003    1735.240      1106.418      8524.941    1769.656
     1233.739      8605.934    1737.192      1248.504      8606.111    1767.326
     1370.951      8686.818    1734.271      1392.204      8687.321    1769.284
     1510.829      8767.746    1736.576      1535.874      8768.568    1772.958
     1647.379      8848.542    1734.581      1675.208      8849.680    1772.470
     1785.675      8929.364    1735.333      1817.278      8930.910    1775.067
     1927.304      9010.343    1739.880      1961.512      9012.305    1778.020
     2070.312      9091.431    1744.265      2106.203      9093.825    1779.613
     2209.232      9172.252    1743.377      2246.350      9175.129    1776.820
     2347.645      9252.988    1742.334      2390.777      9256.889    1778.344
     2484.899      9333.532    1741.073      2531.881      9338.524    1776.558
     2617.942      9413.414    1737.358      2679.025      9421.087    1779.631
     2759.728      9494.220    1740.377      2825.984      9504.092    1783.740
     2894.021      9573.647    1738.108      2966.835      9586.632    1784.094
     3029.816      9652.697    1734.813      3098.042      9667.561    1776.592
     3173.766      9733.090    1733.968      3236.284      9749.978    1772.828
     3321.274      9814.644    1734.214      3369.134      9830.736    1766.143
     3461.313      9893.792    1730.841      3507.486      9912.938    1764.039
     3610.626      9977.326    1737.630      3652.886      9998.447    1769.588
     3751.846     10057.689    1741.306      3798.778     10085.074    1779.035
     3897.953     10141.579    1751.679      3945.452     10172.914    1792.064
     4032.873     10218.306    1755.134      4081.928     10253.980    1799.150
     4169.509     10295.810    1763.529      4214.608     10331.482    1808.549
     4309.526     10375.857    1780.710      4354.627     10414.282    1831.676
     4449.350     10455.975    1803.907      4513.611     10513.736    1880.731
     4601.146     10547.427    1843.590      4640.285     10583.364    1895.522
     4733.024     10620.570    1859.173      4768.508     10653.235    1907.289
     4884.254     10711.298    1898.434      4920.708     10744.437    1946.146
     5032.665     10799.174    1925.468      5064.997     10828.174    1963.726
     5155.148     10863.896    1917.414      5195.167     10899.438    1958.719
     5284.615     10935.081    1914.754      5323.300     10969.160    1950.657
     5426.853     11017.615    1919.442      5462.820     11049.064    1952.907
     5567.797     11099.042    1919.345      5602.465     11129.139    1955.258
     5711.051     11182.467    1921.283      5744.837     11211.633    1960.710
     5855.268     11266.699    1926.468      5885.961     11293.104    1964.248
     5996.570     11348.405    1926.214      6024.035     11372.023    1964.119
      476.677      7982.500    1724.234       477.064      7981.823    1753.201
      616.551      8063.497    1726.384       618.000      8062.908    1756.998
      756.514      8144.448    1731.445       759.678      8143.890    1765.439
      895.926      8225.454    1731.859       901.601      8224.996    1766.486
     1034.968      8306.428    1732.994      1044.971      8306.108    1770.814
     1173.678      8387.374    1733.603      1187.022      8387.310    1767.472
     1313.143      8468.307    1734.535      1330.340      8468.509    1765.970
     1448.417      8549.151    1728.937      1469.131      8549.624    1759.239
     1586.244      8630.004    1728.849      1609.593      8630.733    1758.974
     1724.721      8710.858    1729.864      1757.048      8712.102    1769.066
     1860.003      8791.545    1727.433      1897.800      8793.264    1770.409
     2001.128      8872.464    1732.206      2039.589      8874.498    1771.733
     2144.639      8953.530    1738.426      2185.997      8956.059    1776.243
     2289.137      9034.712    1743.418      2336.729      9038.076    1782.656
     2431.806      9115.828    1745.051      2473.936      9119.288    1776.553
     2573.035      9196.868    1744.232      2622.570      9201.630    1777.330
     2707.442      9277.173    1739.010      2766.992      9283.933    1775.001
     2838.948      9356.854    1733.923      2905.559      9365.795    1770.687
     2969.903      9435.923    1729.417      3053.281      9449.273    1773.000
     3102.295      9514.272    1723.401      3179.933      9529.711    1764.100
     3248.092      9594.681    1721.960      3316.154      9611.820    1759.383
     3399.382      9676.929    1723.120      3455.804      9694.973    1757.142
     3539.390      9755.857    1719.945      3586.125      9774.686    1750.653
     3682.237      9835.842    1722.815      3723.904      9856.524    1751.714
     3828.126      9918.097    1730.962      3873.669      9945.034    1765.039
     3971.868     10000.105    1740.573      4019.390     10032.425    1778.429
     4108.838     10077.762    1747.058      4158.604     10115.608    1788.529
     4246.938     10156.008    1757.497      4294.053     10195.521    1801.805
     4394.913     10243.172    1783.437      4439.666     10283.956    1833.120
     4522.941     10312.411    1793.795      4599.849     10386.598    1885.590
     4687.924     10417.746    1850.907      4725.937     10455.207    1900.373
     4828.183     10498.565    1879.619      4865.959     10535.312    1929.866
     4977.810     10587.652    1917.282      5008.807     10616.734    1956.154
     5107.392     10657.916    1922.394      5143.189     10690.441    1962.113
     5230.128     10722.694    1916.536      5275.905     10763.458    1960.601
     5364.483     10798.205    1918.559      5410.904     10838.993    1959.121
     5506.211     10880.274    1922.253      5552.378     10920.411    1963.365
     5645.141     10959.963    1919.962      5688.774     10997.507    1963.754
     5788.693     11043.649    1921.892      5828.587     11077.654    1967.052
     5933.586     11128.433    1927.339      5968.708     11158.164    1968.652
     6075.280     11210.475    1927.071      6106.666     11236.947    1968.610
      556.110      7844.917    1718.353       556.538      7844.171    1748.568
      695.917      7925.900    1720.740       697.614      7925.227    1753.785
      835.311      8006.928    1721.026       839.040      8006.290    1757.847
      974.461      8087.894    1723.096       981.271      8087.360    1761.456
     1114.116      8168.807    1728.923      1124.559      8168.483    1765.241
     1253.777      8249.742    1732.532      1266.713      8249.682    1762.329
     1392.162      8330.677    1731.389      1406.856      8330.841    1755.629
     1528.367      8411.546    1727.700      1548.662      8411.984    1754.581
     1662.740      8492.314    1723.573      1688.493      8493.065    1753.988
     1798.996      8573.087    1722.314      1834.095      8574.332    1761.772
     1938.615      8653.955    1725.001      1976.708      8655.533    1765.784
     2077.560      8734.776    1727.486      2120.575      8736.832    1769.853
     2218.674      8815.686    1732.211      2262.117      8818.070    1770.373
     2364.543      8896.889    1738.740      2414.738      8900.061    1777.599
     2513.867      8978.438    1743.611      2566.592      8982.287    1779.667
     2657.208      9059.685    1741.153      2709.739      9064.152    1772.979
     2792.469      9140.238    1733.663      2851.632      9146.150    1765.806
     2920.167      9219.753    1725.066      2998.423      9228.994    1762.358
     3046.427      9298.432    1718.199      3138.580      9311.507    1758.580
     3185.890      9378.100    1715.111      3279.317      9394.920    1758.596
     3330.219      9458.324    1713.146      3407.189      9476.158    1750.938
     3472.509      9537.844    1709.600      3539.373      9557.879    1745.751
     3610.374      9615.354    1706.262      3675.530      9640.457    1744.502
     3753.417      9694.416    1709.382      3803.399      9718.660    1740.842
     3894.768      9772.844    1714.093      3943.699      9801.843    1748.117
     4042.759      9856.281    1726.507      4088.493      9888.252    1761.024
     4177.336      9930.835    1731.389      4222.831      9967.271    1767.607
     4321.802     10013.321    1746.283      4366.498     10053.756    1787.132
     4459.421     10090.253    1758.758      4501.813     10132.646    1806.121
     4592.510     10162.729    1772.418      4686.571     10263.904    1889.300
     4717.446     10227.188    1778.928      4816.961     10336.500    1908.424
     4928.989     10385.177    1902.095      4961.803     10419.760    1945.537
     5068.674     10462.846    1926.701      5103.380     10496.992    1969.221
     5187.217     10521.369    1920.827      5225.385     10556.831    1961.462
     5310.828     10586.578    1917.874      5360.625     10631.181    1963.391
     5449.467     10665.817    1924.088      5497.550     10707.948    1964.326
     5589.677     10746.497    1926.899      5635.745     10786.270    1966.799
     5724.822     10822.921    1921.718      5769.392     10860.892    1965.595
     5869.403     10907.449    1925.010      5910.077     10941.668    1970.245
     6015.352     10993.060    1931.438      6051.620     11023.262    1972.751
     6157.076     11075.111    1931.115      6189.354     11101.811    1972.697
      635.580      7707.272    1715.229       636.025      7706.494    1745.763
      775.053      7788.386    1711.707       776.908      7787.676    1744.818
      914.641      7869.311    1716.928       918.698      7868.643    1753.266
     1053.638      7950.281    1719.112      1060.297      7949.778    1753.504
     1192.582      8031.207    1723.078      1203.097      8030.892    1756.816
     1331.315      8112.124    1725.879      1346.423      8112.055    1757.757
     1472.012      8193.059    1729.851      1490.252      8193.250    1757.445
     1610.889      8273.996    1729.820      1633.170      8274.440    1757.200
     1746.246      8354.835    1726.820      1778.442      8355.689    1762.841
     1878.955      8435.546    1721.866      1912.755      8436.618    1758.439
     2013.627      8516.259    1719.514      2056.490      8517.825    1763.996
     2152.905      8597.098    1722.198      2200.225      8599.074    1767.852
     2294.205      8678.005    1727.122      2340.969      8680.237    1767.425
     2437.351      8759.004    1731.162      2490.725      8761.928    1770.884
     2590.714      8840.674    1736.586      2651.580      8844.516    1775.791
     2736.556      8922.046    1732.423      2800.054      8926.668    1768.304
     2876.554      9003.077    1724.381      2944.535      9008.768    1758.491
     3004.145      9082.935    1713.679      3086.959      9091.012    1749.722
     3130.270      9161.857    1705.100      3219.771      9173.091    1744.455
     3268.487      9241.579    1703.240      3358.461      9256.122    1743.553
     3409.867      9321.390    1702.084      3490.067      9338.194    1738.452
     3542.776      9398.402    1696.087      3617.491      9418.920    1732.578
     3685.982      9477.205    1697.240      3744.034      9497.998    1727.784
     3830.292      9556.467    1701.577      3883.130      9580.573    1731.651
     3970.284      9633.425    1705.097      4021.917      9663.162    1738.473
     4113.061      9711.946    1712.491      4156.285      9742.603    1743.861
     4253.798      9789.672    1721.142      4295.193      9824.481    1753.664
     4399.153      9872.167    1734.899      4435.040      9907.265    1767.845
     4536.623      9947.603    1743.925      4564.781      9979.112    1776.470
     4670.416     10017.184    1753.055      4698.324     10053.498    1791.667
     4795.064     10079.538    1761.043      4898.137     10216.114    1903.458
     5010.754     10255.706    1895.423      5045.298     10296.389    1942.313
     5146.115     10325.641    1915.419      5183.880     10364.834    1961.708
     5266.863     10384.684    1914.562      5311.589     10427.248    1961.076
     5396.588     10455.006    1919.663      5445.509     10499.072    1962.917
     5532.535     10531.720    1924.824      5582.637     10575.383    1965.665
     5669.984     10609.972    1926.606      5718.458     10651.383    1967.922
     5816.771     10696.217    1933.883      5857.972     10730.851    1973.813
     5956.888     10776.845    1934.333      5994.350     10807.868    1975.316
     6100.537     10860.418    1938.029      6135.647     10889.125    1977.089