NOECHO

-- =============================================================================
-- 
-- Exported from Reek_base_sim
-- 
-- Exported by user asny from RMS11 at 2020-02-19 17:15:45
-- 
-- =============================================================================

MAPUNITS
'METRES  ' /

MAPAXES
456514.869 5939173.894
456514.869 5927115.548
467218.289 5927115.548 /

GRIDUNIT
'METRES  ' '        ' /

SPECGRID
  40  64  14   1  F  /

GDORIENT
INC INC INC DOWN RIGHT /

COORD
        0.000      8808.151    1732.122         0.194      8807.750    1765.063
      139.998      8889.194    1732.710       140.879      8888.812    1764.650
      279.887      8970.226    1735.319       281.722      8969.834    1768.008
      419.747      9051.227    1740.228       423.046      9050.838    1775.756
      559.592      9132.214    1744.780       564.572      9131.889    1780.907
      699.083      9213.210    1746.115       706.103      9212.979    1781.129
      838.667      9294.185    1748.250       848.022      9294.085    1781.969
      978.466      9375.149    1750.515       990.007      9375.227    1782.375
     1117.286      9456.086    1748.586      1131.133      9456.389    1778.410
     1255.063      9536.944    1744.089      1273.151      9537.608    1776.434
     1393.121      9617.744    1740.841      1415.756      9618.917    1776.457
     1531.143      9698.467    1739.874      1557.316      9700.246    1776.042
     1669.006      9779.090    1740.376      1698.392      9781.610    1775.785
     1806.171      9859.527    1740.019      1836.764      9862.767    1773.032
     1943.921      9939.862    1740.172      1974.501      9943.822    1770.671
     2081.893     10020.028    1740.397      2114.256     10025.134    1771.543
     2220.256     10100.026    1741.822      2257.212     10107.106    1777.175
     2359.976     10180.069    1745.993      2401.128     10189.587    1785.125
     2500.324     10260.100    1751.935      2544.834     10272.417    1793.035
     2640.796     10340.026    1758.221      2686.273     10354.931    1798.220
     2781.922     10420.059    1763.692      2828.593     10437.961    1803.460
     2921.355     10499.299    1765.656      2969.249     10520.500    1805.088
     3060.393     10578.129    1765.339      3109.448     10602.802    1805.969
     3202.238     10658.324    1765.997      3249.562     10684.965    1806.515
     3343.497     10738.306    1765.438      3385.961     10764.720    1803.605
     3482.301     10816.718    1763.349      3519.889     10842.289    1799.426
     3621.051     10894.945    1763.518      3656.089     10920.772    1799.818
     3760.729     10973.826    1767.721      3796.104     11001.801    1807.578
     3901.704     11053.893    1776.144      3936.260     11082.889    1818.444
     4042.980     11134.510    1789.165      4079.286     11166.438    1836.065
     4186.336     11217.337    1814.017      4228.438     11255.659    1864.473
     4332.428     11303.094    1839.770      4376.808     11344.394    1890.050
     4469.123     11380.345    1850.906      4514.220     11422.812    1903.220
     4612.792     11464.279    1871.144      4656.300     11505.450    1923.306
     4760.494     11552.125    1898.531      4800.533     11590.084    1946.509
     4903.546     11635.602    1916.729      4942.329     11672.433    1963.004
     5042.235     11714.946    1922.246      5079.804     11750.719    1967.169
     5181.132     11794.484    1922.915      5212.688     11824.645    1964.158
     5321.465     11875.387    1924.344      5348.074     11900.942    1963.344
     5462.534     11956.992    1928.355      5485.901     11979.566    1965.895
     5603.315     12038.317    1928.133      5623.899     12058.346    1965.776
       79.453      8670.509    1732.144        79.673      8670.122    1765.077
      219.483      8751.552    1732.744       220.376      8751.178    1764.696
      359.418      8832.581    1735.362       361.271      8832.198    1768.053
      499.359      8913.580    1740.280       502.671      8913.203    1775.779
      639.332      8994.567    1744.810       644.312      8994.257    1780.915
      779.013      9075.564    1746.169       785.935      9075.353    1781.144
      918.712      9156.549    1748.309       927.954      9156.465    1781.992
     1058.529      9237.526    1750.527      1069.940      9237.612    1782.370
     1197.434      9318.475    1748.599      1210.888      9318.773    1778.413
     1335.528      9399.359    1744.135      1352.967      9399.991    1776.434
     1473.744      9480.189    1740.916      1495.513      9481.290    1776.454
     1612.024      9560.960    1739.957      1636.875      9562.598    1776.037
     1750.360      9641.664    1740.412      1777.832      9643.938    1775.786
     1888.325      9722.243    1740.104      1916.577      9725.124    1773.026
     2026.893      9802.771    1740.277      2055.193      9806.295    1770.676
     2165.632      9883.185    1740.531      2195.954      9887.789    1771.601
     2304.913      9963.529    1742.079      2339.598      9969.936    1777.303
     2445.507     10044.000    1746.341      2483.788     10052.562    1785.281
     2586.171     10124.412    1752.338      2628.037     10135.653    1793.172
     2727.118     10204.832    1758.642      2771.065     10218.852    1798.387
     2869.018     10285.547    1764.000      2914.777     10302.692    1803.634
     3009.130     10365.543    1765.774      3055.064     10385.477    1805.190
     3148.509     10445.048    1765.520      3194.037     10467.575    1806.100
     3290.077     10525.586    1766.138      3333.296     10549.593    1806.567
     3431.305     10606.023    1765.400      3470.217     10629.968    1803.524
     3570.639     10685.277    1763.346      3605.233     10708.608    1799.492
     3709.020     10763.734    1763.722      3741.522     10787.531    1800.213
     3847.422     10842.063    1768.145      3880.242     10867.882    1808.115
     3986.410     10920.816    1776.565      4018.289     10947.459    1818.829
     4126.179     11000.321    1789.752      4159.277     11029.340    1836.320
     4269.954     11083.640    1814.949      4305.896     11116.271    1864.021
     4413.811     11167.401    1840.019      4451.526     11202.399    1889.222
     4549.461     11243.707    1850.996      4588.898     11280.714    1902.722
     4692.275     11326.833    1871.153      4730.828     11363.151    1922.530
     4838.950     11413.680    1898.327      4875.434     11448.065    1945.565
     4981.633     11496.790    1916.578      5019.173     11532.189    1962.665
     5120.697     11576.499    1922.230      5157.590     11611.348    1967.193
     5260.474     11656.880    1922.928      5291.462     11686.237    1964.324
     5401.591     11738.532    1924.385      5427.724     11763.391    1963.538
     5542.995     11820.459    1928.375      5566.186     11842.636    1966.058
     5683.501     11901.525    1928.151      5704.218     11921.470    1965.933
      158.900      8532.900    1731.102       159.164      8532.440    1764.916
      298.874      8613.954    1730.818       299.846      8613.545    1761.745
      438.705      8694.985    1732.606       440.757      8694.570    1764.772
      578.586      8775.972    1737.296       582.324      8775.566    1773.001
      718.690      8856.940    1742.790       723.994      8856.633    1777.232
      857.986      8937.944    1742.748       865.481      8937.742    1776.987
      997.542      9018.921    1745.132      1007.036      9018.859    1776.657
     1138.164      9099.897    1749.975      1150.763      9100.009    1782.183
     1276.779      9180.846    1747.775      1290.318      9181.146    1775.643
     1414.401      9261.721    1742.906      1432.178      9262.339    1773.784
     1551.646      9342.512    1738.686      1574.779      9343.614    1774.233
     1689.814      9423.276    1737.790      1716.071      9424.885    1774.289
     1829.142      9504.059    1739.344      1856.798      9506.170    1774.135
     1966.167      9584.582    1737.592      1994.066      9587.191    1769.835
     2105.368      9665.194    1738.104      2132.206      9668.258    1766.758
     2243.862      9745.604    1737.617      2274.540      9749.878    1768.513
     2382.341      9825.829    1737.823      2418.865      9832.047    1773.873
     2523.675      9906.417    1742.466      2563.513      9914.681    1781.479
     2664.450      9986.836    1747.810      2710.326      9998.344    1790.546
     2805.404     10067.228    1752.879      2849.960     10080.610    1791.163
     2949.522     10148.662    1758.753      2995.044     10164.857    1796.314
     3088.995     10228.467    1759.347      3132.618     10246.600    1796.099
     3226.948     10307.319    1757.909      3273.630     10329.634    1799.864
     3370.436     10388.775    1760.853      3413.505     10412.078    1801.923
     3510.740     10468.659    1759.848      3549.704     10492.178    1798.240
     3649.262     10547.339    1757.314      3683.375     10570.040    1792.582
     3786.765     10625.096    1757.108      3817.384     10647.307    1791.090
     3924.305     10702.650    1761.299      3958.539     10729.414    1802.800
     4065.578     10783.183    1774.226      4095.330     10807.946    1813.895
     4200.625     10858.557    1782.816      4234.285     10887.998    1830.700
     4348.066     10945.058    1813.398      4382.306     10976.078    1862.218
     4497.148     11033.642    1847.376      4531.086     11065.035    1894.042
     4626.078     11103.739    1850.606      4662.823     11138.049    1900.488
     4768.187     11186.205    1870.510      4805.873     11221.440    1921.239
     4920.529     11278.296    1904.657      4956.619     11311.959    1950.283
     5063.755     11361.877    1922.245      5100.574     11396.146    1964.870
     5197.846     11436.977    1921.825      5235.412     11471.912    1964.826
     5336.320     11516.161    1920.314      5368.104     11545.739    1960.161
     5477.272     11597.646    1920.426      5503.173     11621.803    1956.694
     5619.598     11680.412    1924.785      5642.889     11702.215    1959.743
     5760.337     11761.690    1924.568      5781.237     11781.359    1959.574
      238.370      8395.255    1732.251       238.693      8394.691    1767.610
      378.317      8476.336    1730.343       379.411      8475.867    1761.104
      518.100      8557.370    1731.556       520.442      8556.896    1763.896
      657.912      8638.355    1735.439       661.700      8637.953    1767.142
      797.392      8719.353    1737.258       802.903      8719.047    1768.630
      936.194      8800.345    1737.110       943.505      8800.162    1766.530
     1075.200      8881.302    1739.304      1085.381      8881.248    1769.609
     1215.573      8962.253    1744.574      1227.375      8962.361    1772.029
     1355.465      9043.208    1746.255      1370.745      9043.533    1775.062
     1494.763      9124.140    1745.059      1513.730      9124.757    1775.167
     1634.050      9205.049    1743.983      1656.906      9206.054    1776.289
     1771.665      9285.842    1742.079      1798.341      9287.336    1776.823
     1907.500      9366.439    1738.905      1935.958      9368.410    1772.966
     2045.987      9447.117    1738.655      2075.265      9449.592    1771.374
     2185.420      9527.801    1739.012      2213.518      9530.696    1768.099
     2324.486      9608.354    1738.395      2354.454      9612.133    1767.278
     2464.493      9688.919    1739.363      2501.461      9694.642    1773.614
     2605.593      9769.585    1743.297      2652.653      9778.527    1785.603
     2748.564      9850.654    1749.099      2794.761      9861.354    1788.257
     2885.524      9930.179    1748.804      2931.403      9943.019    1784.880
     3024.898     10010.010    1749.076      3068.371     10024.573    1782.428
     3165.571     10090.065    1749.734      3212.059     10108.474    1787.274
     3310.142     10171.797    1754.173      3362.412     10195.895    1800.107
     3453.014     10253.074    1757.652      3496.883     10276.244    1798.755
     3589.670     10330.929    1754.650      3633.062     10356.766    1796.020
     3729.331     10410.271    1754.776      3769.274     10436.705    1794.034
     3866.484     10487.763    1755.467      3903.256     10514.434    1794.171
     4005.593     10566.522    1762.442      4044.352     10596.935    1807.650
     4144.092     10644.807    1773.324      4175.744     10671.349    1814.470
     4288.368     10728.272    1796.878      4322.690     10758.542    1844.886
     4435.943     10815.268    1829.354      4467.778     10844.274    1874.734
     4573.280     10893.187    1848.079      4602.854     10920.604    1889.245
     4707.285     10968.030    1859.367      4738.322     10996.965    1901.417
     4857.791     11058.333    1890.728      4888.678     11087.072    1931.008
     5006.649     11147.082    1918.025      5039.458     11177.453    1956.587
     5137.879     11219.545    1919.891      5174.244     11253.034    1958.572
     5273.157     11295.819    1920.436      5310.257     11329.851    1959.508
     5415.128     11378.253    1922.422      5444.338     11404.988    1956.184
     5555.318     11459.051    1920.968      5580.315     11481.920    1953.301
     5697.380     11541.554    1924.025      5721.790     11563.921    1957.673
     5838.362     11623.058    1923.837      5860.215     11643.153    1957.459
      317.843      8257.604    1732.437       318.173      8257.028    1763.857
      457.944      8338.636    1733.861       459.202      8338.092    1765.023
      597.941      8419.664    1735.588       600.423      8419.162    1765.607
      737.047      8500.760    1732.211       740.991      8500.346    1760.842
      875.867      8581.774    1731.796       882.684      8581.409    1765.282
     1015.208      8662.725    1735.553      1023.773      8662.521    1765.735
     1154.163      8743.677    1738.230      1165.709      8743.621    1769.130
     1291.629      8824.601    1737.507      1305.508      8824.722    1767.146
     1431.607      8905.526    1741.006      1451.993      8905.929    1776.318
     1571.558      8986.452    1742.120      1594.174      8987.125    1774.650
     1712.785      9067.424    1744.154      1738.163      9068.431    1776.529
     1851.861      9148.304    1744.276      1880.382      9149.736    1778.172
     1989.138      9229.042    1742.783      2020.063      9230.951    1776.947
     2125.411      9309.619    1740.016      2157.782      9312.050    1773.880
     2263.976      9390.256    1739.194      2295.652      9393.155    1769.951
     2403.873      9470.931    1738.728      2439.361      9474.914    1770.337
     2544.386      9551.608    1739.161      2584.628      9557.181    1772.743
     2685.135      9632.259    1741.533      2734.896      9640.775    1780.899
     2825.060      9712.675    1743.321      2881.205      9724.490    1784.998
     2959.077      9791.416    1739.645      3014.151      9805.574    1778.029
     3097.885      9870.797    1737.807      3149.003      9886.729    1773.354
     3239.120      9950.653    1737.649      3284.177      9967.504    1771.594
     3382.903     10031.511    1741.011      3431.472     10053.008    1781.425
     3528.805     10113.766    1747.614      3577.887     10139.064    1790.813
     3669.709     10193.799    1750.228      3721.163     10224.152    1796.105
     3809.607     10273.236    1752.714      3856.671     10304.457    1795.756
     3946.491     10350.477    1755.022      3990.745     10382.920    1798.195
     4088.236     10431.274    1766.204      4127.880     10462.946    1809.458
     4225.315     10508.413    1777.615      4255.170     10534.081    1814.079
     4377.745     10599.460    1814.008      4417.224     10635.225    1865.595
     4522.901     10684.746    1844.920      4557.273     10716.684    1892.475
     4649.101     10752.344    1849.841      4682.946     10784.087    1896.349
     4791.848     10835.418    1874.712      4823.935     10865.438    1916.769
     4947.385     10930.393    1911.286      4978.349     10959.147    1948.805
     5087.253     11010.729    1924.708      5123.456     11044.066    1963.359
     5212.177     11077.458    1919.212      5247.758     11109.955    1953.605
     5346.810     11153.231    1918.417      5383.216     11186.245    1953.645
     5493.061     11239.554    1923.824      5525.815     11269.088    1958.985
     5632.467     11319.680    1920.820      5662.204     11346.395    1956.734
     5775.590     11403.132    1924.421      5803.472     11428.150    1960.030
     5916.748     11484.802    1924.171      5941.786     11507.296    1959.885
      397.281      8120.013    1728.639       397.626      8119.411    1757.786
      537.517      8200.956    1734.547       538.836      8200.387    1763.608
      677.658      8281.981    1736.557       680.097      8281.493    1762.655
      817.060      8363.070    1734.678       820.857      8362.680    1758.771
      955.258      8444.146    1731.147       961.875      8443.801    1759.395
     1094.079      8525.110    1733.574      1103.203      8524.901    1762.061
     1233.180      8606.054    1737.355      1245.762      8605.996    1768.138
     1370.750      8686.981    1737.589      1388.741      8687.126    1773.449
     1508.464      8767.873    1737.766      1533.287      8768.318    1777.754
     1646.816      8848.744    1737.677      1674.000      8849.470    1773.217
     1786.956      8929.647    1738.985      1817.330      8930.717    1773.655
     1929.542      9010.649    1743.154      1965.954      9012.258    1781.661
     2069.403      9091.541    1744.489      2104.932      9093.462    1779.745
     2206.578      9172.235    1742.721      2243.957      9174.689    1777.930
     2344.949      9252.925    1741.149      2383.503      9256.003    1774.863
     2484.981      9333.682    1739.806      2524.545      9337.553    1771.249
     2621.193      9413.914    1735.644      2674.142      9420.336    1774.241
     2763.710      9494.791    1737.679      2827.088      9504.356    1780.404
     2898.159      9574.206    1734.694      2960.233      9585.819    1773.653
     3028.772      9652.062    1728.338      3091.146      9666.529    1765.818
     3174.697      9733.014    1729.286      3229.378      9748.657    1763.111
     3313.325      9811.762    1726.424      3365.085      9829.853    1761.956
     3454.334      9890.930    1727.271      3513.104      9915.729    1772.141
     3600.381      9972.420    1734.141      3654.678      9999.665    1777.835
     3746.222     10054.546    1742.203      3803.373     10088.041    1788.927
     3889.814     10136.057    1749.676      3945.817     10173.618    1796.790
     4029.328     10215.122    1756.349      4079.782     10253.050    1801.361
     4174.389     10298.796    1772.441      4216.877     10334.040    1815.219
     4312.524     10377.129    1787.780      4352.312     10412.948    1833.545
     4450.662     10455.560    1809.110      4507.140     10509.321    1877.972
     4599.633     10544.837    1844.905      4638.070     10582.156    1896.358
     4731.182     10617.256    1858.780      4766.874     10651.788    1906.640
     4884.169     10710.210    1897.986      4917.482     10741.824    1939.515
     5031.769     10797.662    1922.918      5064.277     10827.938    1958.996
     5157.131     10864.545    1919.880      5195.339     10899.628    1956.853
     5285.247     10934.315    1917.785      5329.628     10974.587    1957.057
     5427.800     11017.315    1923.427      5470.102     11055.305    1961.708
     5570.059     11100.040    1924.220      5602.603     11128.998    1957.476
     5710.878     11181.471    1922.246      5741.243     11208.293    1957.359
     5854.862     11265.672    1926.402      5883.552     11290.897    1960.980
     5996.154     11347.472    1926.163      6021.906     11370.082    1960.816
      476.674      7982.501    1721.158       476.996      7981.939    1746.081
      616.828      8063.386    1729.121       618.049      8062.869    1753.594
      756.796      8144.412    1731.026       759.200      8143.942    1754.329
      896.127      8225.478    1730.517       899.894      8225.101    1751.896
     1034.573      8306.521    1729.671      1042.035      8306.145    1758.012
     1173.235      8387.489    1732.263      1184.561      8387.238    1764.260
     1312.013      8468.436    1735.854      1327.033      8468.364    1770.098
     1450.079      8549.368    1737.744      1470.012      8549.509    1775.182
     1587.947      8630.276    1738.499      1614.010      8630.689    1777.756
     1725.852      8711.157    1737.964      1758.202      8711.912    1776.694
     1862.748      8791.974    1735.867      1898.539      8793.065    1772.689
     2003.507      8872.879    1738.106      2044.617      8874.443    1776.909
     2147.124      8953.911    1742.865      2187.448      8955.783    1778.412
     2289.619      9034.927    1745.292      2334.807      9037.467    1782.572
     2430.520      9115.874    1744.468      2473.877      9118.827    1777.447
     2570.476      9196.751    1741.240      2616.983      9200.625    1773.428
     2702.375      9276.771    1732.789      2757.175      9282.456    1767.403
     2841.209      9357.228    1730.976      2901.308      9365.061    1764.962
     2971.866      9436.167    1725.769      3034.216      9446.298    1757.815
     3102.963      9514.178    1719.632      3173.500      9528.643    1755.590
     3251.466      9595.382    1720.637      3315.066      9611.833    1755.354
     3389.250      9673.729    1717.006      3451.508      9693.815    1755.386
     3528.708      9751.927    1716.804      3587.675      9775.412    1757.265
     3669.205      9830.004    1719.784      3732.586      9860.765    1765.836
     3819.912      9913.655    1731.896      3884.021      9950.950    1779.665
     3965.958      9996.035    1741.931      4022.159     10034.383    1785.295
     4104.094     10073.428    1748.714      4162.208     10118.870    1796.119
     4248.366     10155.943    1764.047      4307.113     10207.643    1818.842
     4398.446     10245.193    1792.324      4440.471     10285.817    1839.134
     4524.762     10311.945    1801.367      4596.792     10385.751    1889.311
     4685.822     10414.616    1853.644      4724.353     10454.743    1903.421
     4826.805     10496.152    1880.660      4864.873     10534.993    1930.060
     4978.003     10587.166    1916.947      5014.923     10623.234    1960.895
     5108.383     10657.805    1922.460      5144.852     10692.107    1960.143
     5230.251     10721.375    1917.342      5270.760     10758.554    1953.437
     5360.527     10793.229    1917.441      5407.164     10835.311    1956.063
     5504.291     10877.360    1923.463      5551.388     10919.283    1964.510
     5646.128     10959.749    1923.383      5681.188     10990.566    1958.488
     5788.367     11042.474    1922.501      5819.374     11069.428    1957.734
     5934.457     11128.480    1928.774      5963.211     11153.271    1962.167
     6075.936     11210.453    1928.449      6101.730     11232.588    1961.979
      556.123      7844.892    1718.252       556.431      7844.354    1741.104
      696.066      7925.843    1722.796       697.119      7925.409    1742.669
      835.758      8006.873    1724.346       838.095      8006.430    1745.532
      974.987      8087.902    1725.451       979.813      8087.436    1750.718
     1113.983      8168.891    1728.151      1122.856      8168.460    1758.928
     1253.706      8249.839    1733.977      1266.998      8249.555    1768.546
     1391.758      8330.813    1735.971      1409.788      8330.724    1774.669
     1529.279      8411.758    1737.012      1551.712      8411.886    1776.601
     1667.353      8492.684    1738.123      1696.946      8493.081    1779.491
     1804.585      8573.574    1736.889      1840.526      8574.279    1776.687
     1940.152      8654.388    1733.760      1982.802      8655.471    1774.139
     2079.294      8735.246    1734.565      2124.087      8736.660    1773.162
     2219.809      8816.124    1736.477      2270.971      8818.096    1776.934
     2367.526      8897.320    1741.781      2417.639      8899.656    1777.961
     2514.032      8978.570    1742.869      2565.943      8981.494    1776.997
     2660.496      9059.963    1741.360      2710.084      9063.368    1771.289
     2788.254      9139.980    1728.880      2843.928      9144.748    1759.797
     2920.333      9219.931    1722.308      2987.197      9227.246    1754.605
     3046.447      9298.515    1715.471      3128.665      9309.933    1751.000
     3184.058      9377.798    1712.531      3260.315      9391.415    1746.877
     3330.706      9458.499    1713.285      3404.037      9475.359    1748.948
     3468.530      9536.952    1710.512      3541.550      9558.344    1750.725
     3604.037      9613.672    1708.471      3677.330      9640.787    1753.374
     3744.504      9691.190    1711.773      3820.546      9726.362    1761.481
     3891.444      9771.721    1720.742      3961.111      9811.553    1768.189
     4034.483      9850.640    1727.877      4089.829      9889.004    1767.733
     4170.548      9924.378    1733.186      4233.442      9975.983    1781.303
     4319.558     10009.414    1750.697      4379.378     10066.276    1804.158
     4460.659     10088.921    1766.407      4508.224     10139.500    1819.645
     4592.193     10158.997    1779.185      4684.523     10264.433    1898.864
     4715.474     10221.134    1785.205      4824.347     10346.494    1924.261
     4927.721     10383.580    1903.181      4966.857     10426.621    1953.606
     5064.444     10458.082    1921.693      5099.105     10493.492    1962.535
     5184.701     10517.735    1918.047      5226.210     10557.535    1959.511
     5308.194     10582.624    1916.253      5351.527     10622.511    1952.892
     5441.624     10657.412    1919.615      5486.198     10697.400    1955.252
     5581.599     10738.191    1922.919      5624.625     10776.106    1960.216
     5725.596     10822.493    1925.334      5758.740     10851.240    1958.579
     5871.021     10907.948    1928.282      5900.768     10933.380    1962.120
     6016.636     10993.463    1933.794      6045.261     11017.652    1966.475
     6158.250     11075.540    1933.491      6183.787     11096.951    1966.317
      635.609      7707.218    1718.367       635.918      7706.677    1741.410
      775.298      7788.294    1717.127       776.623      7787.767    1741.460
      914.859      7869.298    1719.610       917.653      7868.792    1744.001
     1054.103      7950.297    1722.116      1059.880      7949.762    1750.807
     1193.079      8031.275    1725.433      1203.145      8030.807    1758.028
     1331.187      8112.254    1727.658      1345.437      8111.960    1761.996
     1469.892      8193.204    1732.088      1489.765      8193.095    1771.659
     1610.188      8274.160    1738.273      1634.993      8274.261    1778.950
     1750.114      8355.134    1741.044      1782.098      8355.467    1782.528
     1882.576      8435.998    1734.038      1919.278      8436.555    1772.163
     2018.046      8516.850    1731.232      2065.875      8517.787    1773.956
     2156.145      8597.707    1731.263      2201.586      8598.817    1768.056
     2295.216      8678.547    1731.795      2348.598      8680.152    1770.566
     2441.807      8759.622    1734.549      2499.004      8761.722    1771.479
     2593.786      8841.013    1736.308      2652.387      8843.631    1770.421
     2737.587      8922.178    1730.459      2799.779      8925.555    1763.915
     2876.024      9003.094    1721.891      2942.953      9007.554    1755.176
     3004.982      9083.185    1712.518      3079.381      9089.501    1744.927
     3130.303      9162.124    1704.659      3221.801      9172.686    1744.007
     3272.564      9242.414    1705.770      3363.255      9256.328    1744.935
     3413.854      9322.419    1706.718      3494.989      9338.728    1743.406
     3553.174      9401.654    1707.081      3629.314      9421.538    1745.055
     3691.914      9480.083    1708.508      3762.624      9503.877    1747.458
     3830.708      9557.668    1711.636      3910.015      9591.735    1758.502
     3972.229      9635.468    1716.982      4043.265      9674.561    1761.441
     4111.034      9710.796    1720.581      4171.910      9753.304    1761.774
     4251.654      9786.743    1727.804      4311.813      9838.608    1772.311
     4397.961      9868.640    1740.875      4455.831      9928.545    1792.705
     4536.869      9944.383    1750.618      4580.118      9996.417    1801.781
     4670.675     10012.607    1758.917      4705.696     10061.818    1812.290
     4794.345     10074.052    1766.788      4903.452     10225.407    1921.397
     5006.653     10250.533    1894.034      5048.133     10301.285    1950.166
     5142.260     10320.864    1911.856      5183.063     10364.742    1960.930
     5266.049     10382.530    1913.659      5308.250     10423.894    1955.460
     5392.593     10449.828    1916.457      5434.739     10488.744    1951.321
     5527.010     10525.420    1922.092      5570.690     10564.291    1956.762
     5660.448     10600.455    1921.669      5704.307     10638.583    1960.342
     5810.443     10689.863    1931.609      5842.542     10717.243    1964.125
     5955.909     10775.218    1936.271      5984.113     10798.869    1968.382
     6100.563     10859.801    1940.038      6129.017     10883.321    1972.376