NOECHO

-- =============================================================================
-- 
-- Exported from Reek_base_sim
-- 
-- Exported by user asny from RMS11 at 2020-02-19 17:21:55
-- 
-- =============================================================================

MAPUNITS
'METRES  ' /

MAPAXES
456514.865 5939172.886
456514.865 5927115.548
467218.236 5927115.548 /

GRIDUNIT
'METRES  ' '        ' /

SPECGRID
  40  64  14   1  F  /

GDORIENT
INC INC INC DOWN RIGHT /

COORD
        0.000      8808.159    1731.633         0.202      8807.743    1767.681
      139.977      8889.201    1732.157       140.891      8888.813    1766.274
      279.864      8970.226    1734.126       281.661      8969.857    1767.541
      419.670      9051.229    1738.811       422.897      9050.871    1775.007
      559.374      9132.220    1743.853       564.562      9131.912    1782.501
      698.698      9213.210    1746.390       706.211      9213.001    1783.931
      838.101      9294.177    1749.235       848.235      9294.114    1785.421
      977.865      9375.132    1751.983       990.248      9375.264    1786.348
     1116.889      9456.064    1750.758      1131.628      9456.437    1783.025
     1254.731      9536.917    1746.208      1273.825      9537.669    1781.182
     1392.678      9617.708    1742.225      1415.633      9618.945    1779.598
     1530.326      9698.404    1739.981      1557.370      9700.279    1779.114
     1667.955      9779.003    1739.635      1698.915      9781.671    1778.933
     1805.435      9859.473    1738.930      1838.030      9862.898    1776.225
     1942.845      9939.778    1738.746      1976.183      9944.014    1773.833
     2080.325     10019.888    1739.816      2115.779     10025.318    1774.591
     2219.042     10099.965    1742.046      2260.205     10107.548    1781.109
     2358.826     10180.047    1745.975      2405.728     10190.399    1789.585
     2498.299     10259.870    1750.795      2547.282     10272.739    1794.907
     2638.881     10339.799    1757.020      2687.352     10354.839    1799.296
     2779.875     10419.727    1762.673      2830.268     10438.034    1806.272
     2919.568     10499.024    1765.274      2971.307     10520.772    1809.308
     3059.538     10578.260    1765.883      3111.676     10603.258    1810.802
     3201.426     10658.417    1766.524      3251.257     10685.270    1810.755
     3341.980     10737.941    1765.103      3386.775     10764.698    1806.419
     3481.144     10816.579    1763.006      3519.278     10841.550    1800.002
     3620.277     10895.092    1763.260      3654.298     10919.283    1798.422
     3760.172     10974.137    1767.132      3793.220     10999.408    1804.341
     3901.330     11054.315    1775.523      3934.425     11081.235    1816.641
     4042.292     11134.604    1789.162      4078.730     11165.761    1837.208
     4186.670     11218.211    1814.085      4229.342     11256.087    1868.890
     4332.128     11303.247    1840.083      4379.374     11346.232    1898.159
     4468.318     11380.063    1851.262      4519.484     11427.281    1913.729
     4611.610     11463.543    1871.100      4661.302     11509.723    1932.899
     4758.827     11550.786    1897.790      4802.721     11591.726    1953.358
     4902.192     11634.491    1915.962      4942.552     11672.253    1966.683
     5041.569     11714.480    1921.596      5079.213     11749.845    1969.173
     5180.587     11794.125    1921.657      5211.133     11822.968    1963.663
     5321.166     11875.242    1922.462      5346.345     11899.157    1960.964
     5462.663     11957.232    1926.303      5484.608     11978.222    1962.823
     5603.685     12038.773    1926.089      5622.936     12057.338    1962.733
       79.454      8670.514    1731.652        79.682      8670.114    1767.681
      219.465      8751.558    1732.179       220.386      8751.182    1766.305
      359.398      8832.580    1734.178       361.214      8832.220    1767.600
      499.292      8913.580    1738.872       502.538      8913.233    1775.054
      639.121      8994.573    1743.889       644.325      8994.279    1782.509
      778.583      9075.568    1746.446       786.088      9075.375    1783.948
      918.117      9156.543    1749.299       928.271      9156.497    1785.446
     1057.976      9237.511    1752.000      1070.347      9237.653    1786.344
     1197.139      9318.457    1750.765      1211.538      9318.823    1783.026
     1335.346      9399.340    1746.244      1353.713      9400.055    1781.176
     1473.499      9480.165    1742.284      1495.459      9481.323    1779.590
     1611.357      9560.907    1740.074      1636.988      9562.634    1779.108
     1749.437      9641.586    1739.681      1778.482      9644.010    1778.932
     1887.618      9722.187    1739.010      1918.085      9725.277    1776.207
     2025.914      9802.688    1738.878      2057.124      9806.512    1773.828
     2164.397      9883.072    1739.973      2197.757      9888.000    1774.648
     2304.022      9963.486    1742.302      2342.863      9970.394    1781.244
     2444.232     10043.886    1746.265      2488.737     10053.389    1789.730
     2584.154     10124.101    1751.191      2631.201     10136.088    1794.995
     2725.294     10204.522    1757.458      2772.923     10218.896    1799.490
     2866.924     10285.054    1763.010      2917.059     10302.828    1806.526
     3007.244     10365.051    1765.460      3057.272     10385.650    1809.426
     3147.550     10444.929    1766.084      3196.140     10467.833    1810.910
     3289.285     10525.489    1766.640      3334.765     10549.666    1810.754
     3429.943     10605.549    1765.069      3470.723     10629.645    1806.292
     3569.558     10684.961    1763.018      3604.396     10707.579    1799.973
     3708.403     10763.769    1763.464      3739.853     10785.980    1798.720
     3846.993     10842.279    1767.542      3877.804     10865.714    1804.895
     3986.572     10921.532    1776.029      4017.131     10946.291    1817.159
     4126.201     11000.925    1789.875      4159.297     11029.139    1837.589
     4269.343     11083.581    1814.801      4306.943     11116.867    1868.447
     4412.679     11166.758    1840.226      4454.420     11204.625    1897.266
     4548.351     11243.133    1851.319      4594.297     11285.378    1913.219
     4691.186     11326.192    1871.130      4736.212     11367.834    1932.274
     4837.474     11412.548    1897.632      4878.218     11450.311    1952.623
     4980.362     11495.789    1915.825      5019.595     11532.222    1966.422
     5120.121     11576.139    1921.580      5157.013     11610.504    1969.202
     5259.979     11656.582    1921.669      5289.973     11684.637    1963.841
     5401.226     11738.327    1922.500      5426.016     11761.636    1961.164
     5542.982     11820.559    1926.324      5564.790     11841.195    1962.995
     5683.664     11901.779    1926.109      5703.116     11920.327    1962.897
      158.900      8532.908    1730.649       159.176      8532.427    1768.348
      298.879      8613.949    1730.960       299.881      8613.539    1764.180
      438.640      8694.991    1730.874       440.608      8694.611    1763.109
      578.487      8775.974    1735.715       582.020      8775.615    1770.887
      718.566      8856.938    1742.496       724.232      8856.645    1780.262
      857.741      8937.938    1743.762       865.855      8937.759    1780.552
      997.085      9018.909    1746.465      1007.662      9018.885    1780.774
     1137.701      9099.882    1751.477      1151.452      9100.056    1786.257
     1276.718      9180.832    1750.196      1290.962      9181.193    1779.694
     1414.517      9261.708    1745.301      1433.226      9262.410    1778.583
     1551.660      9342.492    1740.209      1574.439      9343.630    1776.542
     1688.771      9423.192    1737.199      1716.948      9424.970    1778.072
     1828.116      9503.970    1738.399      1857.981      9506.282    1777.556
     1965.772      9584.547    1736.780      1996.108      9587.388    1773.038
     2104.085      9665.071    1736.270      2134.725      9668.529    1769.901
     2243.016      9745.542    1737.330      2276.951      9750.162    1771.691
     2381.666      9825.821    1738.448      2422.363      9832.512    1777.713
     2522.479      9906.325    1742.773      2569.050      9915.562    1786.096
     2660.989      9986.210    1745.701      2710.866      9998.081    1789.570
     2802.940     10066.769    1751.392      2850.317     10080.216    1790.635
     2946.930     10148.004    1757.489      2997.897     10165.135    1799.149
     3086.818     10227.874    1758.809      3135.514     10247.052    1800.408
     3226.505     10307.461    1758.754      3276.932     10330.410    1805.403
     3370.239     10388.966    1761.690      3415.500     10412.398    1806.451
     3509.256     10468.117    1759.234      3551.356     10492.527    1802.379
     3648.284     10547.107    1757.264      3682.641     10569.124    1793.652
     3786.526     10625.424    1757.617      3816.250     10646.234    1790.613
     3924.040     10703.036    1761.287      3955.274     10726.658    1798.822
     4065.697     10783.846    1773.942      4094.482     10807.085    1812.548
     4201.212     10859.743    1783.604      4234.756     10888.281    1832.141
     4345.769     10943.527    1811.566      4383.011     10976.436    1865.742
     4495.192     11032.167    1847.011      4534.757     11067.954    1902.433
     4624.475     11102.770    1850.239      4669.102     11143.595    1911.353
     4766.932     11185.485    1870.024      4811.073     11225.988    1929.719
     4918.760     11276.883    1903.366      4960.687     11315.316    1957.532
     5062.302     11360.694    1921.349      5100.130     11395.338    1966.896
     5197.247     11436.648    1921.010      5234.938     11471.177    1966.353
     5336.267     11516.333    1919.434      5366.740     11544.302    1959.346
     5476.921     11597.517    1918.633      5501.127     11619.805    1953.629
     5619.346     11680.332    1922.745      5640.991     11700.356    1956.057
     5760.242     11761.736    1922.542      5779.653     11779.808    1955.912
      238.358      8395.282    1730.620       238.691      8394.701    1769.832
      378.284      8476.346    1729.326       379.381      8475.891    1761.746
      518.033      8557.375    1730.168       520.323      8556.934    1763.341
      657.854      8638.351    1734.557       661.572      8637.983    1767.101
      797.397      8719.338    1737.568       803.250      8719.049    1771.964
      936.390      8800.321    1739.323       944.380      8800.162    1771.579
     1075.310      8881.279    1741.826      1086.965      8881.266    1775.881
     1215.634      8962.234    1746.945      1229.142      8962.407    1777.785
     1355.607      9043.192    1748.682      1371.741      9043.588    1778.885
     1494.552      9124.112    1746.699      1513.734      9124.792    1777.505
     1633.612      9205.010    1744.925      1657.233      9206.107    1779.075
     1770.920      9285.778    1741.942      1801.682      9287.565    1783.100
     1907.196      9366.395    1738.772      1937.221      9368.521    1775.761
     2045.722      9447.080    1737.945      2076.835      9449.736    1773.424
     2184.399      9527.696    1737.366      2216.138      9530.956    1770.712
     2323.504      9608.256    1738.032      2358.307      9612.573    1771.323
     2461.990      9688.601    1738.547      2502.562      9694.700    1774.854
     2601.419      9768.920    1741.112      2654.019      9778.508    1785.757
     2743.515      9849.655    1745.726      2795.159      9861.024    1786.828
     2883.984      9929.975    1748.195      2932.110      9942.709    1784.462
     3022.913     10009.649    1748.520      3069.563     10024.413    1783.792
     3162.202     10089.105    1748.231      3213.313     10108.280    1789.852
     3307.102     10170.705    1752.512      3365.038     10196.140    1804.859
     3450.761     10252.144    1756.286      3498.722     10276.396    1803.136
     3589.579     10331.193    1755.322      3635.258     10357.348    1801.208
     3729.789     10410.924    1756.402      3770.655     10437.002    1798.242
     3865.963     10487.860    1756.029      3903.037     10513.848    1795.412
     4006.259     10567.538    1764.062      4044.239     10596.407    1807.931
     4144.773     10645.916    1774.774      4177.662     10672.706    1817.234
     4289.350     10729.567    1799.140      4325.076     10760.263    1849.115
     4433.092     10813.020    1827.117      4467.211     10843.377    1875.905
     4569.928     10890.490    1845.505      4604.963     10922.272    1894.355
     4704.128     10965.595    1856.614      4741.874     11000.088    1907.560
     4855.232     11056.247    1888.132      4891.951     11089.779    1935.793
     5005.495     11146.133    1917.153      5043.424     11180.627    1962.133
     5136.914     11218.903    1919.112      5173.981     11252.472    1959.531
     5273.174     11296.121    1920.044      5310.455     11329.784    1960.643
     5416.885     11380.078    1923.602      5444.449     11404.936    1956.415
     5555.029     11459.011    1919.416      5577.909     11479.658    1949.617
     5697.007     11541.397    1922.267      5719.583     11561.820    1953.814
     5838.101     11622.979    1922.090      5858.294     11641.328    1953.593
      317.833      8257.627    1731.397       318.162      8257.053    1765.446
      457.953      8338.630    1734.301       459.186      8338.117    1766.701
      597.904      8419.666    1735.164       600.354      8419.197    1766.445
      737.055      8500.746    1732.013       741.208      8500.341    1763.674
      875.845      8581.754    1731.735       882.776      8581.424    1766.952
     1015.134      8662.703    1736.091      1024.623      8662.523    1769.738
     1154.370      8743.650    1740.258      1167.026      8743.641    1773.407
     1291.573      8824.565    1739.264      1306.784      8824.752    1770.597
     1432.022      8905.501    1743.474      1453.750      8906.000    1779.965
     1571.423      8986.415    1743.523      1594.892      8987.182    1777.021
     1712.389      9067.378    1744.899      1739.027      9068.507    1779.101
     1851.597      9148.261    1744.514      1882.877      9149.907    1781.990
     1989.070      9229.004    1742.824      2021.081      9231.049    1778.690
     2125.269      9309.573    1739.454      2159.585      9312.206    1775.553
     2263.122      9390.153    1737.834      2298.357      9393.402    1771.988
     2402.443      9470.767    1737.965      2441.793      9475.152    1772.318
     2542.166      9551.331    1738.644      2588.484      9557.608    1775.678
     2681.178      9631.666    1739.680      2737.284      9640.932    1781.438
     2819.836      9711.735    1740.201      2884.445      9724.713    1785.228
     2956.636      9791.064    1738.586      3013.206      9804.854    1776.488
     3095.475      9870.424    1737.150      3149.733      9886.433    1774.535
     3237.003      9950.284    1737.138      3285.020      9967.327    1773.717
     3380.542     10030.874    1739.561      3432.127     10052.649    1783.941
     3527.165     10113.229    1746.441      3582.045     10140.359    1797.502
     3668.771     10193.552    1749.975      3723.081     10224.418    1801.783
     3810.208     10273.940    1754.485      3857.918     10304.527    1800.681
     3946.754     10351.081    1756.499      3989.653     10381.543    1799.263
     4087.687     10431.242    1766.678      4127.539     10462.155    1809.977
     4224.826     10508.460    1778.050      4256.455     10534.949    1816.258
     4377.176     10599.147    1814.296      4420.136     10637.176    1869.904
     4520.471     10682.638    1842.987      4558.798     10717.493    1895.635
     4645.851     10749.737    1846.990      4685.779     10786.440    1901.456
     4788.768     10832.922    1871.611      4825.993     10867.092    1919.805
     4944.321     10927.667    1907.601      4979.227     10959.497    1949.470
     5084.524     11008.337    1921.695      5123.938     11043.997    1963.749
     5210.355     11076.130    1917.229      5249.102     11110.924    1954.956
     5347.721     11154.419    1918.569      5387.233     11189.669    1957.256
     5493.901     11240.567    1923.551      5525.230     11268.381    1957.578
     5632.319     11319.807    1919.446      5661.217     11345.392    1954.587
     5775.106     11402.907    1922.793      5801.906     11426.625    1957.116
     5916.367     11484.642    1922.573      5940.428     11505.981    1957.008
      397.280      8120.022    1728.156       397.617      8119.434    1759.603
      537.544      8200.945    1735.567       538.858      8200.402    1766.506
      677.638      8281.982    1736.691       680.021      8281.533    1763.760
      817.105      8363.056    1735.094       820.831      8362.702    1759.958
      955.346      8444.119    1731.584       962.618      8443.783    1763.601
     1094.218      8525.080    1734.455      1104.677      8524.889    1767.082
     1232.748      8606.024    1737.265      1246.051      8606.013    1768.770
     1370.337      8686.938    1738.142      1389.424      8687.156    1774.029
     1508.624      8767.830    1739.381      1535.776      8768.400    1780.573
     1647.704      8848.718    1739.990      1677.513      8849.601    1777.914
     1785.973      8929.558    1738.676      1819.203      8930.820    1776.408
     1928.415      9010.551    1742.263      1967.042      9012.361    1783.103
     2068.422      9091.438    1743.475      2106.132      9093.575    1780.953
     2206.376      9172.170    1742.156      2246.051      9174.865    1779.243
     2343.676      9252.772    1739.655      2386.229      9256.239    1776.243
     2484.904      9333.638    1739.982      2530.421      9338.114    1775.132
     2621.045      9413.886    1736.430      2681.307      9421.112    1778.435
     2760.646      9494.364    1736.365      2830.691      9504.649    1781.031
     2893.674      9573.509    1732.388      2962.728      9585.926    1773.710
     3026.306      9651.802    1727.313      3093.802      9666.726    1767.141
     3171.521      9732.459    1728.173      3228.276      9747.893    1763.638
     3312.157      9811.786    1726.451      3365.133      9829.415    1763.664
     3453.548      9891.082    1726.598      3512.787      9914.983    1773.876
     3598.644      9971.992    1732.164      3655.601      9999.454    1781.268
     3744.596     10053.960    1740.911      3803.039     10087.019    1792.471
     3889.051     10135.847    1749.897      3943.652     10171.318    1798.675
     4028.568     10214.879    1756.670      4079.120     10251.792    1803.198
     4172.390     10297.385    1771.384      4217.816     10334.092    1817.407
     4310.525     10375.604    1786.263      4354.115     10413.960    1836.081
     4448.959     10454.229    1807.753      4509.945     10511.157    1881.378
     4597.259     10542.697    1842.561      4641.542     10584.889    1901.191
     4728.268     10614.777    1855.970      4769.775     10654.218    1910.994
     4879.195     10705.657    1892.152      4915.602     10739.607    1936.746
     5027.788     10793.996    1918.092      5065.986     10828.964    1959.835
     5154.046     10861.977    1916.488      5195.934     10899.786    1956.530
     5283.904     10933.513    1916.093      5331.040     10975.570    1957.235
     5427.241     11017.168    1921.859      5472.498     11057.149    1962.308
     5570.779     11100.971    1923.338      5607.164     11132.837    1960.284
     5710.285     11181.230    1920.111      5744.208     11210.743    1959.168
     5853.894     11265.042    1924.122      5884.616     11291.666    1960.982
     5995.284     11346.900    1923.882      6022.905     11370.822    1960.912
      476.679      7982.499    1720.546       476.992      7981.952    1747.624
      616.813      8063.390    1728.892       618.010      8062.905    1754.722
      756.789      8144.407    1731.140       759.259      8143.953    1756.668
      896.239      8225.454    1731.278       900.104      8225.097    1754.350
     1034.766      8306.489    1730.513      1042.290      8306.152    1759.769
     1173.561      8387.453    1733.452      1185.405      8387.243    1766.480
     1312.136      8468.400    1736.673      1327.663      8468.383    1770.628
     1449.671      8549.322    1737.769      1471.047      8549.540    1775.056
     1587.820      8630.223    1738.997      1615.618      8630.745    1777.586
     1725.299      8711.082    1737.929      1759.803      8711.986    1777.587
     1861.606      8791.863    1735.078      1899.317      8793.121    1773.341
     2001.983      8872.743    1736.754      2044.754      8874.493    1776.716
     2146.511      8953.814    1742.125      2188.481      8955.883    1778.628
     2288.842      9034.821    1744.207      2336.730      9037.644    1782.932
     2430.436      9115.810    1743.948      2478.283      9119.181    1779.423
     2571.079      9196.749    1741.543      2621.412      9201.017    1775.297
     2702.469      9276.731    1733.202      2764.566      9283.172    1770.824
     2838.398      9356.854    1729.680      2909.490      9365.954    1768.277
     2969.555      9435.877    1724.705      3035.965      9446.341    1758.383
     3100.919      9514.008    1718.661      3179.314      9529.442    1759.543
     3248.086      9594.806    1719.322      3310.311      9610.186    1754.666
     3387.191      9673.479    1716.257      3447.793      9692.170    1755.071
     3527.812      9752.076    1715.611      3587.667      9774.930    1758.982
     3669.250      9830.607    1718.471      3732.862      9860.308    1768.196
     3818.217      9913.149    1729.998      3881.657      9948.790    1780.862
     3965.410      9996.025    1741.839      4019.969     10032.124    1786.353
     4103.452     10073.329    1748.684      4162.919     10118.609    1799.035
     4247.359     10155.354    1763.725      4308.363     10207.851    1821.627
     4396.255     10243.174    1790.325      4443.721     10288.218    1843.265
     4523.414     10310.856    1799.943      4598.892     10386.998    1891.544
     4684.442     10413.168    1852.044      4726.022     10455.815    1905.243
     4824.631     10493.955    1878.322      4866.789     10536.309    1932.286
     4975.459     10584.563    1913.843      5014.501     10622.114    1959.375
     5105.573     10655.213    1919.181      5145.977     10692.617    1960.024
     5227.874     10719.520    1914.824      5273.858     10761.041    1954.735
     5359.222     10792.511    1915.756      5411.825     10839.199    1957.740
     5503.773     10877.286    1921.604      5557.717     10924.525    1966.860
     5646.545     10960.452    1921.694      5688.418     10996.674    1962.648
     5787.792     11042.280    1919.715      5824.234     11073.470    1960.714
     5933.720     11128.062    1926.294      5966.315     11155.745    1963.918
     6075.105     11209.930    1925.950      6104.480     11234.781    1963.805
      556.122      7844.901    1716.945       556.426      7844.370    1742.245
      696.074      7925.835    1722.644       697.083      7925.437    1743.180
      835.788      8006.856    1724.522       838.042      8006.454    1746.332
      974.922      8087.890    1725.116       979.789      8087.455    1751.844
     1113.951      8168.868    1728.195      1122.977      8168.478    1759.988
     1254.238      8249.803    1735.426      1267.007      8249.583    1767.866
     1392.095      8330.777    1736.837      1409.438      8330.749    1772.463
     1529.261      8411.710    1737.184      1551.949      8411.908    1774.197
     1667.622      8492.631    1738.537      1697.050      8493.108    1776.352
     1804.807      8573.509    1737.205      1840.664      8574.311    1775.124
     1941.224      8654.329    1734.739      1982.531      8655.497    1772.967
     2078.814      8735.130    1734.073      2124.272      8736.702    1772.176
     2218.774      8815.979    1735.419      2268.924      8818.063    1773.674
     2366.377      8897.181    1740.389      2414.242      8899.556    1773.726
     2513.095      8978.451    1741.647      2565.162      8981.527    1774.792
     2659.850      9059.866    1740.460      2709.281      9063.369    1769.369
     2787.115      9139.809    1728.099      2848.565      9145.133    1761.025
     2920.010      9219.842    1722.167      2998.811      9228.384    1759.276
     3046.048      9298.485    1715.372      3136.289      9310.733    1755.095
     3182.055      9377.577    1711.689      3263.328      9391.602    1750.461
     3326.426      9457.729    1711.604      3403.548      9474.761    1751.521
     3464.777      9536.199    1708.867      3536.867      9556.459    1750.370
     3603.194      9613.863    1707.170      3675.246      9639.451    1753.786
     3742.773      9691.063    1709.095      3815.591      9723.428    1759.873
     3889.077      9771.056    1717.956      3960.223      9810.237    1769.451
     4033.017      9850.292    1726.511      4089.114      9887.911    1768.794
     4169.183      9923.979    1731.917      4236.212      9977.524    1785.276
     4318.181     10008.521    1749.611      4379.094     10065.298    1805.506
     4460.113     10088.590    1765.889      4511.408     10142.400    1823.794
     4592.259     10159.368    1779.173      4685.534     10264.692    1899.805
     4714.781     10220.920    1784.680      4824.719     10346.018    1924.104
     4926.061     10381.409    1900.990      4967.317     10426.188    1953.367
     5063.720     10457.080    1920.647      5099.130     10492.748    1961.434
     5183.161     10516.318    1916.366      5224.876     10555.719    1956.880
     5306.723     10581.586    1914.687      5351.696     10622.330    1951.214
     5439.592     10656.018    1917.236      5488.442     10699.134    1954.007
     5580.574     10737.700    1920.374      5629.386     10780.019    1959.995
     5726.239     10823.378    1923.401      5764.496     10856.027    1960.214
     5871.653     10908.734    1926.124      5906.258     10937.851    1964.853
     6016.352     10993.399    1931.291      6048.793     11020.391    1968.001
     6157.728     11075.254    1931.004      6186.869     11099.327    1967.905
      635.601      7707.239    1716.657       635.927      7706.669    1743.851
      775.293      7788.287    1716.319       776.575      7787.801    1741.636
      914.765      7869.300    1718.447       917.546      7868.826    1744.295
     1054.026      7950.284    1721.806      1059.467      7949.819    1750.010
     1192.889      8031.257    1725.045      1202.528      8030.857    1756.553
     1331.148      8112.219    1727.696      1344.493      8111.994    1758.898
     1470.371      8193.160    1732.891      1489.161      8193.115    1768.413
     1610.107      8274.112    1737.626      1634.392      8274.278    1774.353
     1750.875      8355.089    1741.258      1781.509      8355.491    1778.000
     1883.120      8435.925    1734.337      1917.429      8436.539    1768.330
     2019.533      8516.778    1732.307      2066.881      8517.841    1773.186
     2156.482      8597.595    1731.414      2203.730      8598.892    1767.752
     2295.113      8678.413    1731.425      2348.695      8680.190    1767.995
     2441.842      8759.508    1733.900      2494.708      8761.614    1766.261
     2592.367      8840.865    1734.662      2644.837      8843.365    1764.050
     2737.033      8922.074    1729.403      2796.915      8925.476    1760.670
     2875.234      9002.965    1720.942      2946.675      9007.837    1755.591
     3005.041      9083.112    1712.480      3091.763      9090.469    1749.948
     3131.251      9162.190    1705.442      3235.704      9174.046    1752.004
     3271.944      9242.330    1706.170      3370.604      9257.035    1751.740
     3410.935      9321.925    1706.050      3498.250      9338.854    1747.997
     3546.655      9400.188    1704.172      3629.261      9420.931    1747.010
     3688.532      9479.310    1706.288      3759.920      9502.358    1747.192
     3826.787      9556.594    1708.372      3907.685      9589.830    1758.203
     3967.267      9633.563    1712.771      4042.749      9673.279    1762.040
     4106.292      9708.464    1716.708      4166.285      9748.712    1758.868
     4249.071      9785.391    1725.465      4308.444      9834.988    1771.239
     4395.565      9866.648    1738.668      4457.514      9929.485    1795.991
     4536.274      9943.842    1749.860      4582.602      9998.988    1805.442
     4671.101     10013.447    1759.523      4707.263     10063.734    1814.491
     4793.848     10074.046    1766.736      4903.587     10224.172    1920.070
     5007.071     10250.557    1894.330      5046.775     10298.525    1947.177
     5142.124     10320.433    1911.518      5181.744     10362.465    1958.006
     5266.134     10382.604    1913.645      5305.719     10420.831    1951.607
     5392.643     10450.086    1916.013      5434.344     10487.981    1948.802
     5526.162     10524.986    1920.206      5570.264     10563.586    1952.530
     5659.955     10600.436    1919.399      5708.415     10641.872    1958.417
     5810.238     10689.949    1928.429      5847.983     10721.618    1964.493
     5955.930     10775.413    1933.173      5988.123     10801.973    1968.692
     6100.204     10859.623    1937.127      6131.639     10885.193    1972.155