NOECHO

-- =============================================================================
-- 
-- Exported from Reek_base_sim
-- 
-- Exported by user asny from RMS11 at 2020-02-19 16:20:18
-- 
-- =============================================================================

MAPUNITS
'METRES  ' /

MAPAXES
456514.885 5939174.235
456514.885 5927115.548
467218.185 5927115.548 /

GRIDUNIT
'METRES  ' '        ' /

SPECGRID
  40  64  14   1  F  /

GDORIENT
INC INC INC DOWN RIGHT /

COORD
        0.000      8808.126    1741.705         0.163      8807.779    1772.984
      140.001      8889.156    1741.998       140.801      8888.860    1769.817
      279.955      8970.163    1743.683       281.612      8969.894    1771.181
      419.884      9051.152    1745.594       423.002      9050.917    1776.450
      559.537      9132.142    1745.512       564.382      9132.003    1776.459
      699.137      9213.112    1746.426       705.905      9213.114    1775.904
      838.551      9294.066    1747.600       848.118      9294.254    1778.203
      977.802      9374.999    1748.350       990.165      9375.422    1779.192
     1116.569      9455.891    1747.528      1130.984      9456.565    1777.964
     1255.111      9536.735    1745.842      1271.711      9537.711    1778.686
     1392.806      9617.476    1742.254      1413.329      9618.933    1781.128
     1530.932      9698.180    1741.457      1554.977      9700.203    1781.312
     1668.664      9778.772    1742.022      1696.010      9781.471    1779.051
     1806.660      9859.291    1742.501      1837.329      9862.831    1777.761
     1944.552      9939.669    1742.152      1978.930      9944.324    1778.234
     2082.888     10019.943    1741.605      2122.285     10026.239    1781.914
     2221.438     10100.058    1741.900      2263.908     10108.109    1785.309
     2360.758     10180.116    1745.246      2404.140     10189.886    1787.371
     2500.916     10260.181    1750.032      2541.756     10271.092    1787.127
     2642.305     10340.462    1756.442      2682.378     10353.110    1791.743
     2783.703     10420.682    1762.541      2826.610     10436.587    1800.854
     2924.136     10500.463    1766.521      2968.247     10519.458    1807.173
     3063.274     10579.523    1767.410      3108.932     10602.012    1809.751
     3203.410     10658.961    1766.906      3249.953     10684.729    1809.842
     3344.882     10739.237    1766.423      3387.563     10765.338    1807.572
     3484.667     10818.583    1764.550      3522.346     10843.679    1803.621
     3622.631     10896.634    1762.930      3657.879     10921.930    1802.416
     3761.173     10974.975    1765.230      3798.268     11003.398    1810.197
     3901.720     11054.890    1772.841      3938.508     11084.716    1821.436
     4043.030     11135.647    1785.443      4078.390     11165.645    1835.534
     4185.797     11217.947    1809.570      4222.450     11250.121    1858.822
     4331.367     11303.072    1835.696      4371.234     11338.884    1886.565
     4469.161     11381.425    1848.009      4514.199     11422.434    1906.038
     4612.656     11465.077    1868.526      4657.337     11506.037    1927.094
     4760.401     11552.724    1896.791      4800.068     11589.214    1947.487
     4903.243     11635.906    1914.638      4940.040     11669.851    1958.219
     5042.380     11715.672    1922.052      5076.855     11747.586    1961.856
     5181.523     11795.437    1924.812      5211.466     11823.273    1962.250
     5322.520     11876.918    1927.674      5348.837     11901.512    1965.455
     5463.506     11958.389    1931.554      5486.609     11980.120    1969.232
     5604.292     12039.668    1931.335      5624.348     12058.687    1969.057
       79.450      8670.486    1741.737        79.637      8670.158    1772.994
      219.497      8751.511    1742.042       220.284      8751.231    1769.869
      359.531      8832.516    1743.726       361.155      8832.260    1771.226
      499.598      8913.504    1745.629       502.654      8913.284    1776.442
      639.475      8994.497    1745.572       644.199      8994.377    1776.482
      779.334      9075.481    1746.475       785.985      9075.498    1775.937
      918.982      9156.454    1747.664       928.503      9156.657    1778.227
     1058.369      9237.406    1748.399      1070.551      9237.837    1779.194
     1197.071      9318.309    1747.582      1210.925      9318.965    1777.974
     1335.387      9399.155    1745.864      1351.070      9400.076    1778.696
     1472.979      9479.903    1742.337      1492.133      9481.252    1781.123
     1611.322      9560.646    1741.539      1633.882      9562.512    1781.318
     1749.682      9641.327    1742.087      1775.443      9643.812    1779.052
     1888.379      9721.968    1742.560      1917.388      9725.228    1777.750
     2026.990      9802.507    1742.249      2059.792      9806.823    1778.249
     2165.849      9882.962    1741.712      2204.092      9888.893    1781.942
     2305.304      9963.378    1742.122      2347.017      9971.052    1785.346
     2446.187     10043.964    1745.545      2488.361     10053.195    1787.363
     2587.195     10124.524    1750.441      2626.643     10134.790    1787.174
     2728.697     10205.182    1756.861      2767.749     10217.223    1792.035
     2870.065     10285.779    1762.907      2912.366     10301.152    1801.183
     3010.412     10365.938    1766.741      3054.004     10384.414    1807.395
     3149.775     10445.531    1767.496      3194.065     10467.084    1809.833
     3290.315     10525.611    1767.038      3333.901     10549.524    1809.928
     3431.939     10606.400    1766.408      3471.121     10630.188    1807.537
     3572.393     10686.604    1764.498      3606.657     10709.289    1803.634
     3710.223     10765.002    1762.991      3742.717     10788.200    1802.775
     3847.766     10842.987    1765.589      3882.306     10869.342    1810.791
     3986.358     10921.650    1773.251      4020.585     10949.300    1821.763
     4126.015     11001.212    1785.993      4158.749     11028.895    1835.832
     4269.123     11083.917    1810.432      4301.337     11112.106    1858.821
     4412.874     11167.485    1835.971      4447.537     11198.517    1885.914
     4549.627     11244.928    1848.129      4589.608     11281.191    1905.475
     4692.520     11328.026    1868.636      4732.488     11364.495    1926.399
     4839.200     11414.663    1896.649      4874.903     11447.318    1946.727
     4981.390     11497.226    1914.500      5016.033     11528.970    1957.988
     5120.934     11577.367    1922.027      5154.329     11608.049    1961.897
     5260.896     11657.891    1924.831      5290.183     11684.890    1962.388
     5402.550     11739.972    1927.721      5428.409     11763.918    1965.595
     5543.845     11821.727    1931.584      5566.832     11843.139    1969.341
     5684.352     11902.744    1931.363      5704.620     11921.768    1969.164
      158.897      8532.879    1739.904       159.128      8532.476    1773.250
      298.888      8613.909    1739.136       299.761      8613.594    1767.536
      438.866      8694.902    1740.558       440.686      8694.623    1768.990
      578.996      8775.874    1743.191       582.642      8775.629    1776.961
      718.581      8856.868    1741.144       723.897      8856.758    1773.236
      858.569      8937.841    1743.245       865.885      8937.889    1773.006
      997.836      9018.800    1743.604      1008.999      9019.071    1776.343
     1137.569      9099.758    1745.739      1151.057      9100.260    1777.390
     1275.841      9180.639    1744.914      1290.252      9181.332    1774.814
     1414.423      9261.500    1744.771      1430.074      9262.412    1775.680
     1551.172      9342.199    1740.638      1572.499      9343.662    1780.740
     1689.660      9422.956    1740.408      1715.165      9424.987    1782.397
     1828.409      9503.685    1741.123      1854.038      9506.039    1776.275
     1967.718      9584.413    1741.822      1995.593      9587.370    1774.614
     2105.921      9664.943    1740.485      2139.753      9669.119    1776.491
     2243.734      9745.283    1738.433      2283.600      9751.070    1778.475
     2382.032      9825.508    1737.146      2427.315      9833.311    1780.911
     2523.953      9906.254    1740.729      2569.184      9915.558    1782.304
     2664.488      9986.667    1744.484      2703.359      9996.220    1778.330
     2806.729     10067.460    1750.718      2846.335     10079.071    1784.302
     2949.292     10148.406    1756.905      2994.940     10164.307    1795.786
     3090.372     10228.860    1760.928      3134.920     10247.121    1800.113
     3230.278     10308.739    1762.112      3274.534     10329.755    1803.066
     3369.824     10388.318    1761.110      3412.352     10411.260    1803.055
     3512.307     10469.590    1761.837      3551.154     10492.907    1803.051
     3652.543     10549.695    1759.931      3685.791     10571.533    1797.996
     3787.365     10626.013    1755.352      3818.025     10647.776    1792.508
     3925.249     10704.171    1759.265      3960.577     10731.013    1804.722
     4065.958     10784.481    1771.574      4099.699     10811.653    1818.554
     4200.648     10859.897    1779.146      4233.926     10887.961    1829.004
     4347.412     10945.681    1809.012      4377.925     10972.290    1855.586
     4495.838     11033.404    1842.961      4528.145     11062.192    1890.976
     4626.457     11105.379    1847.626      4665.330     11140.418    1904.554
     4768.145     11187.357    1866.880      4807.899     11223.339    1924.319
     4921.491     11279.967    1903.380      4957.356     11312.434    1952.156
     5061.715     11360.715    1917.668      5095.346     11391.146    1958.413
     5197.562     11437.509    1920.499      5230.537     11467.358    1958.392
     5336.220     11516.845    1921.144      5366.129     11543.958    1957.718
     5477.956     11598.968    1923.256      5505.254     11623.780    1960.787
     5620.005     11681.373    1927.416      5644.990     11704.180    1965.133
     5760.783     11762.617    1927.181      5782.986     11783.009    1964.920
      238.366      8395.234    1739.698       238.667      8394.708    1777.587
      378.330      8476.291    1737.064       379.573      8475.831    1774.317
      518.214      8557.290    1737.326       520.613      8556.920    1771.934
      658.197      8638.258    1739.103       662.020      8638.011    1771.343
      797.390      8719.245    1735.847       803.409      8719.136    1768.572
      936.649      8800.193    1736.449       946.431      8800.281    1772.131
     1076.059      8881.131    1738.701      1088.733      8881.460    1772.164
     1215.643      8962.071    1741.209      1229.914      8962.614    1771.750
     1355.588      9043.022    1744.596      1370.506      9043.738    1773.006
     1494.890      9123.933    1746.504      1512.955      9124.964    1778.818
     1635.627      9204.921    1749.840      1660.079      9206.541    1790.464
     1772.282      9285.606    1746.181      1799.759      9287.694    1786.630
     1908.926      9366.210    1743.298      1934.472      9368.427    1775.739
     2045.454      9446.702    1740.158      2074.393      9449.578    1772.407
     2184.986      9527.400    1739.639      2214.795      9530.829    1769.822
     2323.441      9607.879    1737.456      2362.666      9613.170    1774.562
     2462.547      9688.309    1736.292      2509.893      9695.892    1778.330
     2602.877      9768.812    1737.960      2652.448      9778.319    1778.797
     2744.316      9849.458    1741.378      2792.678      9860.600    1779.096
     2886.334      9930.219    1745.786      2932.615      9943.036    1781.164
     3026.806     10010.471    1748.799      3073.599     10026.018    1785.289
     3164.926     10089.627    1749.907      3208.522     10106.865    1785.365
     3311.419     10172.208    1756.766      3353.447     10191.691    1793.821
     3456.129     10254.614    1761.769      3499.104     10277.491    1803.278
     3594.328     10333.718    1759.847      3634.000     10357.410    1801.076
     3733.021     10412.938    1758.077      3771.838     10438.443    1800.537
     3870.338     10491.076    1757.700      3908.027     10517.916    1800.811
     4008.933     10569.960    1763.622      4047.385     10599.321    1810.443
     4146.727     10648.127    1773.718      4182.672     10677.279    1821.199
     4289.241     10730.262    1794.766      4324.740     10760.391    1845.528
     4436.812     10817.112    1827.428      4468.746     10845.045    1874.993
     4573.779     10894.848    1845.551      4606.565     10924.059    1894.213
     4707.034     10969.216    1855.453      4742.232     11000.845    1906.764
     4855.092     11056.934    1884.064      4888.391     11086.901    1930.670
     5005.340     11146.648    1913.704      5040.052     11177.827    1957.746
     5137.590     11220.216    1916.399      5171.600     11250.678    1955.046
     5272.426     11296.147    1917.558      5305.106     11325.351    1953.132
     5414.663     11378.705    1921.780      5444.846     11405.645    1956.685
     5555.689     11460.175    1922.813      5583.687     11485.172    1958.776
     5697.826     11542.631    1926.618      5724.638     11566.622    1963.785
     5838.788     11624.028    1926.406      5862.677     11645.498    1963.559
      317.834      8257.592    1737.781       318.152      8257.035    1773.604
      457.875      8338.631    1737.020       459.280      8338.104    1775.597
      597.620      8419.668    1734.618       600.422      8419.235    1771.595
      736.840      8500.677    1731.133       741.582      8500.376    1767.030
      875.874      8581.625    1730.278       883.757      8581.497    1767.961
     1015.402      8662.550    1733.422      1026.167      8662.661    1767.940
     1154.251      8743.463    1734.863      1168.376      8743.843    1767.979
     1292.044      8824.322    1734.539      1310.047      8825.011    1769.004
     1431.712      8905.236    1738.110      1451.979      8906.196    1772.553
     1574.114      8986.297    1745.566      1596.540      8987.543    1780.703
     1716.705      9067.406    1751.614      1740.794      9068.938    1786.039
     1854.168      9148.183    1749.755      1882.539      9150.228    1786.207
     1992.066      9228.940    1748.475      2021.797      9231.364    1782.517
     2127.392      9309.404    1743.616      2157.932      9312.231    1774.847
     2263.093      9389.762    1738.535      2295.410      9393.202    1768.574
     2404.035      9470.578    1737.672      2440.937      9475.167    1769.548
     2541.534      9550.858    1734.227      2590.644      9558.098    1773.377
     2680.698      9631.195    1734.442      2735.301      9640.852    1773.891
     2820.972      9711.565    1735.799      2878.631      9723.881    1775.007
     2960.457      9791.557    1736.787      3011.954      9804.896    1771.274
     3098.758      9870.855    1736.615      3150.222      9887.038    1772.467
     3238.958      9950.349    1738.684      3287.438      9968.746    1774.462
     3384.233     10031.868    1743.801      3427.997     10051.639    1779.972
     3532.738     10115.699    1752.486      3578.615     10139.848    1794.913
     3673.175     10195.905    1754.176      3718.092     10222.749    1798.596
     3815.587     10277.508    1758.224      3860.015     10306.953    1803.582
     3952.421     10355.433    1759.260      3996.970     10387.580    1806.265
     4089.326     10433.122    1764.721      4126.681     10462.129    1806.674
     4226.020     10510.379    1775.130      4260.866     10539.250    1817.441
     4380.044     10602.600    1812.820      4419.985     10637.260    1864.960
     4522.648     10685.516    1840.541      4558.292     10717.177    1891.206
     4649.029     10753.853    1845.501      4686.976     10787.951    1900.901
     4789.138     10834.417    1867.531      4824.607     10866.340    1918.050
     4945.779     10929.836    1907.064      4976.612     10957.504    1947.717
     5084.825     11009.419    1918.945      5119.658     11040.537    1959.690
     5210.529     11077.180    1913.126      5246.176     11108.856    1950.692
     5346.547     11154.217    1914.552      5383.131     11186.562    1952.052
     5492.068     11239.667    1921.330      5524.473     11268.194    1956.892
     5632.773     11320.859    1921.669      5665.228     11349.352    1961.035
     5776.378     11404.583    1926.893      5806.030     11430.603    1965.109
     5917.437     11486.059    1926.627      5943.991     11509.414    1964.943
      397.266      8120.013    1731.306       397.600      8119.429    1765.491
      537.322      8201.004    1733.540       538.810      8200.446    1770.738
      676.995      8282.048    1731.151       680.011      8281.587    1767.060
      816.448      8363.033    1730.748       821.662      8362.712    1765.752
      955.330      8443.990    1729.790       963.507      8443.868    1763.896
     1093.735      8524.904    1729.807      1106.179      8525.045    1764.654
     1232.262      8605.792    1731.440      1247.659      8606.212    1763.385
     1370.551      8686.659    1732.782      1391.932      8687.473    1769.268
     1510.077      8767.564    1736.118      1535.902      8768.763    1774.911
     1651.467      8848.567    1741.645      1679.391      8850.067    1779.489
     1791.349      8929.494    1744.360      1820.038      8931.238    1779.448
     1932.349      9010.490    1747.921      1962.727      9012.559    1781.805
     2072.631      9091.438    1749.552      2104.590      9093.873    1781.761
     2209.539      9172.090    1746.179      2246.132      9175.229    1779.164
     2346.450      9252.660    1741.581      2385.896      9256.517    1773.802
     2485.139      9333.314    1737.861      2523.140      9337.622    1766.511
     2619.876      9413.341    1731.737      2664.102      9419.265    1762.284
     2756.698      9493.350    1729.263      2818.135      9503.224    1767.668
     2890.728      9572.451    1725.847      2956.770      9585.320    1764.484
     3029.136      9651.818    1725.134      3085.302      9665.241    1757.511
     3170.648      9731.527    1725.918      3231.328      9749.397    1762.499
     3316.800      9812.651    1730.509      3369.662      9831.762    1765.198
     3458.390      9892.280    1731.930      3513.332      9916.375    1773.807
     3604.660      9974.353    1738.492      3653.334      9999.687    1780.668
     3749.646     10056.618    1745.189      3799.786     10086.728    1791.253
     3894.615     10139.687    1753.161      3942.196     10171.763    1798.103
     4030.932     10217.115    1755.729      4079.642     10253.163    1802.906
     4169.833     10296.227    1764.798      4213.079     10330.915    1809.527
     4310.897     10377.164    1781.786      4350.754     10411.462    1827.042
     4452.712     10459.127    1806.084      4511.583     10512.369    1876.934
     4600.683     10547.136    1840.811      4640.704     10584.045    1895.571
     4731.473     10619.251    1854.350      4770.697     10655.467    1910.367
     4880.383     10707.942    1890.818      4914.538     10739.062    1937.758
     5027.740     10794.960    1916.221      5061.002     10824.869    1957.009
     5153.875     10862.943    1912.156      5191.798     10896.720    1953.002
     5284.651     10935.274    1911.623      5327.356     10972.996    1953.395
     5426.603     11017.563    1917.641      5469.704     11055.336    1959.448
     5569.368     11100.568    1920.662      5608.686     11134.771    1962.120
     5710.332     11182.002    1920.868      5747.210     11213.884    1963.933
     5854.674     11266.330    1926.677      5887.282     11294.420    1966.418
     5995.876     11347.928    1926.373      6025.221     11373.196    1966.322
      476.680      7982.464    1723.722       476.988      7981.925    1752.642
      616.524      8063.467    1724.400       617.926      8062.947    1756.183
      756.183      8144.455    1725.605       759.354      8143.979    1759.435
      895.747      8225.409    1727.894       901.187      8225.083    1760.147
     1034.894      8306.355    1729.197      1043.958      8306.231    1762.228
     1173.750      8387.277    1730.741      1187.104      8387.439    1763.560
     1311.637      8468.161    1730.969      1328.692      8468.630    1762.539
     1448.533      8548.980    1730.281      1470.070      8549.791    1763.385
     1587.081      8629.837    1732.307      1612.635      8630.995    1766.608
     1727.544      8710.782    1736.506      1758.999      8712.409    1773.955
     1864.832      8791.547    1737.008      1903.438      8793.778    1778.036
     2007.773      8872.633    1743.054      2044.639      8874.996    1778.991
     2151.880      8953.831    1748.094      2193.530      8956.788    1784.483
     2293.217      9034.862    1747.807      2338.426      9038.437    1782.813
     2432.901      9115.767    1744.261      2479.198      9119.893    1776.633
     2573.398      9196.747    1740.422      2623.686      9201.886    1772.911
     2704.509      9276.616    1731.228      2761.736      9283.486    1765.437
     2838.104      9356.415    1725.803      2901.073      9365.481    1759.860
     2973.345      9436.000    1722.452      3048.328      9449.100    1759.966
     3106.887      9514.548    1718.538      3176.897      9529.734    1753.330
     3245.553      9593.386    1717.427      3319.373      9613.487    1755.697
     3393.596      9674.694    1721.557      3454.445      9695.441    1756.680
     3534.770      9753.817    1721.650      3587.448      9776.077    1758.060
     3676.280      9832.949    1724.363      3730.737      9860.868    1767.373
     3821.812      9914.667    1731.816      3877.012      9948.004    1778.342
     3967.469      9997.526    1741.004      4019.508     10033.421    1786.618
     4106.951     10076.697    1747.938      4161.078     10118.287    1796.568
     4248.600     10157.724    1760.370      4297.521     10199.034    1807.740
     4397.927     10246.208    1786.507      4437.211     10282.123    1829.929
     4526.697     10316.221    1796.653      4597.339     10384.402    1880.840
     4687.571     10417.499    1848.858      4721.495     10450.881    1893.970
     4826.383     10496.912    1875.776      4861.048     10530.557    1923.825
     4975.865     10585.964    1913.010      5008.105     10616.150    1955.125
     5106.825     10657.610    1917.857      5140.697     10688.355    1956.590
     5231.470     10724.126    1913.352      5276.133     10763.896    1957.989
     5366.663     10800.358    1916.769      5415.483     10843.269    1961.499
     5507.114     10881.295    1920.475      5553.107     10921.291    1963.102
     5646.760     10961.581    1919.798      5687.146     10996.335    1961.234
     5789.398     11044.459    1921.322      5826.264     11075.881    1963.561
     5934.258     11129.189    1927.793      5968.277     11157.981    1967.604
     6075.467     11210.793    1927.464      6106.165     11236.683    1967.467
      556.106      7844.894    1717.863       556.420      7844.345    1745.377
      695.854      7925.876    1719.102       697.271      7925.364    1748.414
      835.254      8006.874    1719.521       838.466      8006.408    1750.359
      974.589      8087.808    1722.603       981.347      8087.423    1758.194
     1114.174      8168.724    1727.087      1124.955      8168.593    1761.755
     1254.477      8249.663    1732.350      1267.106      8249.824    1759.944
     1391.654      8330.550    1731.135      1408.883      8331.023    1759.990
     1527.880      8411.356    1729.694      1550.451      8412.193    1761.474
     1664.195      8492.127    1728.907      1692.625      8493.375    1763.699
     1803.699      8573.020    1732.022      1837.915      8574.714    1768.751
     1941.833      8653.834    1733.931      1984.289      8656.155    1774.139
     2081.055      8734.688    1736.371      2124.462      8737.288    1773.561
     2225.912      8815.891    1741.528      2268.176      8818.663    1773.706
     2371.363      8897.185    1743.427      2413.270      8900.209    1771.490
     2519.800      8978.796    1743.911      2564.416      8982.373    1770.877
     2660.987      9059.927    1738.598      2713.287      9064.668    1768.180
     2796.108      9140.494    1730.720      2857.062      9146.907    1763.166
     2927.622      9220.458    1723.453      2998.119      9229.354    1756.942
     3056.179      9299.472    1716.433      3137.582      9312.032    1751.947
     3192.038      9378.816    1713.132      3271.383      9394.208    1748.504
     3328.515      9457.523    1711.568      3406.635      9476.870    1747.455
     3470.391      9536.950    1712.533      3538.370      9558.449    1747.330
     3613.040      9616.350    1713.347      3677.410      9642.152    1753.071
     3751.836      9693.812    1714.512      3811.342      9723.450    1756.424
     3895.488      9773.653    1720.200      3954.638      9809.279    1765.515
     4040.674      9855.325    1728.500      4090.806      9890.708    1769.609
     4176.324      9930.500    1732.530      4231.482      9974.897    1779.532
     4320.732     10012.835    1746.639      4375.103     10062.006    1797.345
     4461.733     10093.020    1761.561      4508.158     10139.179    1812.699
     4595.498     10166.318    1775.156      4684.753     10261.588    1884.982
     4721.813     10232.379    1782.698      4813.539     10332.239    1902.866
     4927.522     10383.414    1899.119      4960.909     10418.308    1944.403
     5068.005     10462.138    1923.821      5099.874     10493.284    1963.916
     5187.758     10522.060    1917.100      5222.315     10554.022    1954.664
     5312.612     10588.456    1914.915      5360.470     10631.208    1960.148
     5449.355     10666.017    1920.258      5500.589     10710.820    1964.948
     5588.346     10745.642    1922.865      5631.626     10782.941    1961.595
     5728.211     10826.090    1922.662      5769.451     10861.162    1964.058
     5871.815     10909.738    1925.291      5909.219     10941.146    1967.632
     6016.373     10994.140    1931.438      6050.911     11022.844    1970.668
     6157.505     11075.665    1931.114      6188.692     11101.415    1970.589
      635.573      7707.254    1715.782       635.907      7706.669    1744.099
      775.105      7788.308    1713.175       776.671      7787.763    1743.111
      914.483      7869.265    1715.762       917.797      7868.806    1744.744
     1053.648      7950.193    1719.010      1059.011      7949.905    1744.457
     1193.154      8031.096    1723.942      1202.914      8030.994    1752.133
     1331.886      8112.008    1726.405      1345.659      8112.194    1753.630
     1473.024      8192.979    1732.688      1491.396      8193.483    1760.900
     1610.363      8273.852    1732.715      1634.803      8274.739    1764.693
     1747.760      8354.701    1732.846      1780.764      8356.097    1770.376
     1883.704      8435.462    1731.701      1920.672      8437.198    1768.387
     2019.519      8516.183    1731.350      2066.509      8518.583    1772.228
     2155.600      8596.879    1731.034      2204.288      8599.569    1768.705
     2298.002      8677.905    1733.695      2343.971      8680.653    1765.056
     2445.725      8759.288    1735.883      2489.538      8762.135    1762.124
     2597.412      8841.036    1735.995      2650.261      8844.798    1764.734
     2741.155      8922.342    1729.926      2801.536      8927.102    1761.008
     2881.159      9003.426    1722.963      2948.399      9009.392    1755.711
     3009.229      9083.337    1713.329      3087.778      9091.510    1747.518
     3136.682      9162.479    1705.108      3220.315      9173.605    1741.357
     3280.690      9243.413    1706.050      3359.191      9256.845    1739.580
     3419.141      9323.229    1706.805      3499.997      9341.109    1741.564
     3548.718      9399.918    1704.005      3625.328      9421.905    1739.984
     3691.385      9479.199    1706.556      3756.051      9503.162    1741.957
     3831.941      9557.396    1709.346      3901.470      9589.961    1752.299
     3974.452      9636.167    1713.681      4044.529      9677.225    1761.795
     4115.450      9714.102    1717.640      4170.872      9753.806    1759.953
     4253.359      9789.809    1722.586      4312.344      9839.597    1770.822
     4398.880      9872.514    1735.878      4454.480      9926.588    1787.256
     4537.342      9949.158    1745.425      4582.646      9999.084    1796.736
     4671.289     10019.154    1754.280      4707.465     10065.407    1803.617
     4796.848     10082.708    1762.566      4898.359     10214.967    1902.033
     5009.590     10253.667    1892.182      5042.275     10291.606    1936.911
     5146.310     10325.609    1912.737      5179.789     10359.989    1954.297
     5271.464     10389.184    1914.921      5309.465     10425.093    1955.107
     5400.390     10458.704    1918.793      5444.136     10497.917    1958.782
     5532.781     10532.266    1921.554      5584.540     10577.191    1965.288
     5669.067     10609.530    1923.037      5718.081     10651.250    1965.786
     5813.423     10693.719    1928.450      5853.963     10727.673    1968.172
     5955.826     10776.254    1931.169      5992.237     10806.293    1971.281
     6100.096     10860.312    1936.232      6133.979     10887.905    1973.683