NOECHO

-- =============================================================================
-- 
-- Exported from Reek_base_sim
-- 
-- Exported by user asny from RMS11 at 2020-02-19 16:29:45
-- 
-- =============================================================================

MAPUNITS
'METRES  ' /

MAPAXES
456514.865 5939174.519
456514.865 5927115.548
467218.250 5927115.548 /

GRIDUNIT
'METRES  ' '        ' /

SPECGRID
  40  64  14   1  F  /

GDORIENT
INC INC INC DOWN RIGHT /

COORD
        0.000      8808.162    1743.403         0.207      8807.729    1774.481
      139.970      8889.193    1743.745       140.951      8888.795    1774.563
      279.815      8970.215    1744.566       281.844      8969.835    1776.874
      419.564      9051.210    1745.998       423.046      9050.881    1778.891
      559.115      9132.191    1746.030       563.986      9131.980    1774.840
      698.880      9213.150    1747.095       705.669      9213.067    1774.007
      838.275      9294.105    1747.109       848.244      9294.194    1775.886
      977.496      9375.041    1747.274       990.282      9375.360    1776.352
     1116.174      9455.934    1745.934      1130.800      9456.501    1774.652
     1254.071      9536.748    1742.829      1271.220      9537.639    1774.075
     1391.663      9617.480    1739.753      1412.730      9618.858    1775.963
     1529.800      9698.178    1739.894      1554.018      9700.106    1777.547
     1667.769      9778.781    1741.381      1694.488      9781.329    1777.956
     1804.796      9859.176    1741.320      1834.510      9862.544    1778.382
     1942.340      9939.464    1741.582      1976.895      9944.120    1782.224
     2080.627     10019.662    1742.277      2121.512     10026.233    1788.476
     2219.233     10099.698    1742.783      2262.773     10108.065    1790.508
     2357.937     10179.498    1744.515      2401.814     10189.587    1790.728
     2498.854     10259.618    1749.722      2540.201     10270.939    1792.176
     2642.366     10340.461    1759.077      2682.083     10353.327    1799.404
     2784.418     10420.919    1767.255      2826.938     10437.074    1809.617
     2923.232     10500.014    1770.301      2968.354     10519.862    1812.195
     3061.052     10578.322    1769.872      3108.861     10602.300    1811.364
     3201.705     10657.868    1769.723      3243.353     10681.298    1804.732
     3343.331     10738.072    1769.048      3379.792     10760.730    1799.677
     3482.671     10816.919    1767.151      3519.329     10841.762    1799.489
     3620.298     10894.475    1766.657      3656.913     10921.251    1801.308
     3759.313     10972.945    1769.755      3796.609     11002.090    1808.639
     3900.966     11053.635    1776.050      3935.261     11081.977    1817.081
     4042.066     11134.171    1786.896      4075.608     11163.147    1831.181
     4185.574     11217.130    1812.595      4221.522     11249.231    1857.234
     4331.044     11302.241    1838.823      4368.604     11336.536    1882.853
     4469.073     11380.772    1851.825      4508.290     11417.054    1898.632
     4615.014     11466.761    1874.908      4653.669     11502.753    1922.185
     4766.156     11557.710    1906.487      4799.879     11589.220    1946.817
     4909.006     11640.965    1924.417      4941.026     11670.978    1960.833
     5045.544     11718.307    1928.583      5078.093     11748.938    1964.398
     5182.575     11796.085    1928.709      5213.650     11825.472    1965.864
     5322.590     11876.666    1930.070      5349.495     11902.255    1967.180
     5463.505     11958.101    1934.402      5486.831     11980.433    1970.258
     5604.037     12039.165    1934.151      5624.563     12058.971    1970.118
       79.458      8670.506    1743.426        79.705      8670.072    1774.509
      219.482      8751.541    1743.773       220.477      8751.152    1774.599
      359.387      8832.564    1744.605       361.378      8832.203    1776.889
      499.193      8913.563    1746.040       502.575      8913.257    1778.885
      638.888      8994.545    1746.092       643.595      8994.357    1774.881
      778.949      9075.511    1747.127       785.582      9075.448    1774.035
      918.654      9156.481    1747.174       928.451      9156.586    1775.908
     1057.988      9237.434    1747.314      1070.594      9237.764    1776.353
     1196.705      9318.345    1745.953      1211.014      9318.907    1774.650
     1334.657      9399.180    1742.849      1351.232      9400.039    1774.086
     1472.294      9479.938    1739.824      1492.521      9481.243    1775.970
     1610.671      9560.681    1739.991      1633.854      9562.488    1777.553
     1749.087      9641.365    1741.413      1774.697      9643.741    1777.953
     1886.769      9721.889    1741.385      1915.030      9724.992    1778.401
     2024.940      9802.341    1741.670      2057.696      9806.606    1782.268
     2163.700      9882.727    1742.388      2202.697      9888.778    1788.517
     2302.850      9963.008    1742.955      2344.856      9970.813    1790.501
     2442.672     10043.252    1744.788      2485.360     10052.760    1790.720
     2584.911     10123.970    1750.241      2624.754     10134.571    1792.327
     2728.373     10205.122    1759.605      2766.689     10217.222    1799.734
     2870.158     10285.846    1767.588      2912.121     10301.443    1809.877
     3009.213     10365.436    1770.415      3053.322     10384.491    1812.261
     3147.766     10444.517    1770.030      3193.461     10467.106    1811.338
     3288.937     10524.775    1769.812      3327.856     10546.425    1804.622
     3431.324     10605.881    1769.017      3465.438     10626.896    1799.707
     3571.495     10685.762    1767.123      3605.311     10708.526    1799.621
     3709.440     10764.055    1766.809      3742.808     10788.333    1801.658
     3847.877     10842.559    1770.166      3881.404     10868.663    1809.171
     3986.897     10921.486    1776.420      4017.793     10946.953    1817.432
     4125.797     11000.374    1787.539      4156.116     11026.512    1831.506
     4269.479     11083.619    1813.645      4300.155     11110.956    1857.077
     4412.701     11166.771    1839.129      4444.731     11195.944    1882.224
     4549.518     11244.227    1851.942      4583.869     11275.902    1898.201
     4694.350     11329.180    1874.895      4728.391     11360.737    1921.244
     4844.060     11418.748    1906.122      4874.687     11447.200    1945.904
     4986.682     11501.766    1924.215      5017.264     11530.235    1960.521
     5123.757     11579.625    1928.582      5155.336     11609.111    1964.464
     5261.908     11658.474    1928.732      5291.994     11686.682    1965.954
     5402.838     11739.922    1930.125      5428.909     11764.486    1967.372
     5544.210     11821.790    1934.433      5566.907     11843.304    1970.421
     5684.356     11902.495    1934.179      5704.677     11921.898    1970.272
      158.912      8532.887    1741.978       159.202      8532.380    1772.885
      298.909      8613.927    1741.928       300.008      8613.492    1772.401
      438.720      8694.955    1741.955       441.084      8694.535    1776.270
      578.516      8775.938    1743.947       582.591      8775.591    1779.817
      718.017      8856.917    1743.286       722.992      8856.742    1771.545
      858.132      8937.874    1744.627       865.245      8937.834    1771.152
      997.058      9018.828    1742.688      1008.224      9018.982    1772.748
     1137.059      9099.785    1745.026      1150.925      9100.174    1774.513
     1275.926      9180.699    1744.605      1290.909      9181.297    1772.474
     1413.319      9261.511    1741.235      1430.750      9262.401    1771.795
     1550.624      9342.254    1738.241      1573.096      9343.653    1775.667
     1688.606      9422.977    1737.880      1712.888      9424.776    1774.702
     1828.473      9503.797    1741.018      1855.041      9506.114    1776.885
     1965.465      9584.295    1739.798      1994.034      9587.217    1775.680
     2103.807      9664.806    1739.898      2138.396      9668.982    1781.076
     2242.202      9745.183    1739.732      2284.709      9751.289    1787.611
     2380.320      9825.323    1738.748      2425.438      9833.098    1786.841
     2520.573      9905.640    1740.348      2566.188      9915.109    1786.099
     2661.880      9986.077    1744.140      2702.523      9996.220    1783.985
     2806.406     10067.409    1753.480      2845.357     10079.034    1791.473
     2950.414     10148.840    1762.606      2994.708     10164.531    1804.181
     3089.470     10228.503    1765.070      3132.720     10246.474    1804.104
     3226.586     10306.951    1763.400      3275.489     10330.411    1806.258
     3368.525     10387.533    1763.956      3404.358     10407.034    1795.179
     3511.013     10468.644    1763.632      3543.575     10488.398    1792.440
     3650.622     10548.126    1761.697      3685.574     10571.427    1794.855
     3787.117     10625.334    1760.059      3820.651     10649.601    1794.896
     3926.055     10704.125    1764.134      3960.226     10730.664    1804.195
     4065.849     10783.639    1773.247      4095.024     10807.670    1812.298
     4199.090     10857.654    1778.834      4230.594     10884.817    1824.620
     4349.220     10946.508    1814.373      4378.904     10972.946    1857.798
     4496.417     11033.308    1846.859      4526.107     11060.294    1888.573
     4627.397     11105.480    1852.893      4659.495     11134.953    1897.467
     4770.142     11188.504    1873.751      4803.959     11219.636    1920.419
     4926.573     11284.183    1913.547      4955.927     11311.180    1951.008
     5068.954     11366.938    1929.805      5099.045     11394.590    1964.088
     5200.310     11439.572    1927.384      5230.853     11467.653    1960.796
     5337.021     11517.122    1925.191      5368.049     11545.704    1962.029
     5477.253     11597.903    1924.684      5503.181     11621.864    1959.746
     5619.936     11680.950    1929.932      5643.025     11702.384    1964.000
     5760.353     11761.894    1929.619      5781.143     11781.310    1963.765
      238.361      8395.277    1739.497       238.699      8394.688    1770.655
      378.290      8476.334    1738.489       379.569      8475.814    1770.356
      518.021      8557.355    1738.636       520.701      8556.875    1773.160
      658.011      8638.303    1742.678       662.426      8637.936    1777.120
      797.300      8719.288    1740.979       803.356      8719.091    1771.542
      936.095      8800.242    1738.232       944.976      8800.215    1767.862
     1075.030      8881.167    1738.015      1087.668      8881.363    1768.586
     1216.132      8962.139    1743.198      1231.048      8962.570    1771.898
     1356.206      9043.101    1745.491      1370.879      9043.684    1770.136
     1493.763      9123.937    1743.256      1512.382      9124.861    1772.562
     1635.318      9204.961    1747.089      1659.965      9206.428    1783.824
     1772.658      9285.717    1745.107      1800.262      9287.644    1782.601
     1909.504      9366.365    1743.567      1938.134      9368.690    1778.913
     2046.257      9446.909    1741.959      2079.061      9450.008    1780.210
     2185.353      9527.577    1742.408      2222.461      9531.689    1783.257
     2323.619      9608.041    1741.232      2367.872      9613.867    1786.637
     2461.926      9688.340    1739.497      2512.494      9696.342    1788.035
     2600.504      9768.464    1738.884      2652.228      9778.370    1785.152
     2743.339      9849.308    1743.333      2789.220      9859.948    1782.854
     2885.979      9930.172    1749.137      2933.301      9943.410    1789.519
     3025.323     10010.003    1752.539      3069.901     10024.954    1790.023
     3168.922     10091.219    1758.290      3215.180     10109.622    1796.782
     3312.880     10172.867    1762.355      3354.767     10192.341    1796.793
     3453.674     10253.222    1762.334      3492.867     10274.135    1794.395
     3593.552     10333.056    1761.089      3631.954     10356.133    1793.304
     3732.855     10412.476    1760.620      3767.284     10435.385    1791.629
     3870.015     10490.284    1761.102      3908.451     10518.189    1799.215
     4007.052     10567.743    1764.647      4042.807     10595.704    1805.047
     4144.737     10645.564    1773.170      4176.722     10672.183    1814.481
     4285.833     10726.378    1792.138      4320.498     10756.582    1840.933
     4435.477     10815.162    1828.228      4468.127     10844.449    1875.285
     4574.686     10894.873    1850.315      4605.209     10922.712    1893.298
     4709.339     10970.437    1862.552      4739.254     10997.897    1903.923
     4859.366     11060.166    1893.639      4886.672     11085.210    1930.284
     5009.918     11150.354    1923.390      5036.251     11174.408    1954.891
     5142.850     11224.452    1926.843      5176.676     11255.226    1962.886
     5274.808     11297.725    1924.685      5307.867     11327.723    1958.981
     5415.314     11378.777    1926.220      5444.563     11405.289    1959.248
     5556.467     11460.408    1926.918      5581.252     11482.889    1958.410
     5698.229     11542.586    1930.541      5721.764     11563.985    1962.613
     5838.866     11623.733    1930.328      5860.038     11643.069    1962.405
      317.815      8257.658    1737.081       318.182      8257.020    1766.907
      457.850      8338.666    1738.810       459.292      8338.072    1771.050
      597.635      8419.696    1738.572       600.484      8419.187    1771.164
      736.854      8500.720    1736.137       741.212      8500.365    1765.945
      876.244      8581.667    1736.760       884.011      8581.431    1770.797
     1015.066      8662.604    1735.653      1025.688      8662.590    1766.933
     1153.914      8743.521    1736.068      1167.802      8743.752    1765.977
     1292.563      8824.418    1737.090      1309.809      8824.921    1766.700
     1432.227      8905.336    1739.746      1454.829      8906.219    1773.299
     1572.712      8986.292    1742.754      1595.290      8987.373    1773.699
     1714.835      9067.346    1747.180      1741.132      9068.829    1780.990
     1855.059      9148.308    1748.957      1882.585      9150.106    1781.452
     1991.710      9229.001    1747.319      2021.693      9231.252    1780.197
     2128.244      9309.601    1745.605      2163.084      9312.615    1781.960
     2265.107      9390.119    1743.234      2304.957      9394.135    1782.076
     2402.903      9470.593    1740.702      2452.407      9476.499    1785.104
     2540.903      9550.918    1737.926      2595.965      9558.816    1783.664
     2680.460      9631.281    1737.490      2733.985      9640.610    1778.620
     2821.321      9711.732    1739.306      2871.299      9722.355    1775.838
     2957.325      9790.801    1738.534      3009.220      9804.243    1776.094
     3097.015      9870.341    1740.698      3148.978      9886.674    1778.648
     3240.218      9950.847    1744.839      3283.427      9967.188    1776.981
     3385.933     10032.616    1749.768      3424.430     10049.902    1778.634
     3531.011     10114.677    1753.524      3572.263     10136.284    1784.507
     3672.517     10195.259    1754.967      3714.458     10220.353    1787.697
     3816.239     10277.527    1760.034      3864.593     10309.905    1800.756
     3951.444     10354.072    1760.957      3994.746     10385.929    1801.247
     4087.848     10431.052    1766.151      4126.965     10462.235    1807.696
     4225.874     10509.127    1777.667      4259.867     10538.150    1818.694
     4376.860     10598.918    1811.850      4418.650     10636.351    1866.316
     4522.755     10684.860    1844.247      4557.664     10716.822    1892.557
     4650.078     10753.735    1851.486      4682.350     10783.556    1896.323
     4791.171     10835.271    1874.926      4824.590     10866.113    1919.988
     4950.021     10933.123    1916.313      4979.397     10960.064    1953.017
     5089.360     11012.975    1928.861      5120.650     11041.457    1963.195
     5214.505     11080.035    1923.015      5247.522     11109.869    1955.620
     5348.454     11155.202    1921.924      5381.820     11185.165    1954.743
     5491.640     11238.685    1925.358      5523.050     11266.759    1959.393
     5634.240     11321.621    1927.480      5660.389     11344.930    1959.157
     5777.019     11404.698    1932.015      5801.996     11426.957    1963.884
     5917.827     11486.005    1931.787      5940.297     11506.074    1963.660
      397.240      8120.092    1732.136       397.642      8119.389    1761.684
      537.375      8201.007    1737.610       538.921      8200.371    1768.800
      677.232      8282.039    1737.379       680.410      8281.476    1769.847
      816.608      8363.061    1735.619       821.946      8362.638    1767.777
      955.114      8444.048    1732.461       963.087      8443.820    1763.032
     1093.590      8524.969    1731.888      1105.459      8524.968    1762.828
     1232.148      8605.866    1732.914      1248.693      8606.153    1764.727
     1370.739      8686.750    1734.670      1392.383      8687.381    1767.807
     1509.337      8767.623    1736.405      1534.621      8768.587    1769.398
     1648.036      8848.484    1737.652      1674.985      8849.720    1769.472
     1788.855      8929.439    1740.706      1814.456      8930.802    1768.762
     1930.524      9010.451    1744.445      1955.217      9011.953    1769.612
     2073.097      9091.546    1749.165      2102.357      9093.566    1777.257
     2210.598      9172.279    1748.379      2247.412      9175.177    1781.662
     2348.683      9252.997    1746.483      2391.805      9256.914    1782.402
     2484.080      9333.348    1740.968      2531.026      9338.357    1776.779
     2615.358      9412.937    1732.560      2673.299      9420.349    1773.400
     2758.124      9493.739    1733.607      2819.754      9503.339    1773.479
     2891.413      9572.731    1729.858      2954.888      9584.860    1768.584
     3025.951      9651.176    1727.522      3082.671      9664.558    1761.969
     3169.431      9731.260    1730.522      3218.413      9745.513    1761.010
     3313.972      9811.706    1733.937      3362.146      9828.872    1765.091
     3457.329      9891.852    1736.376      3507.001      9913.300    1769.513
     3601.371      9972.552    1739.548      3650.435      9997.789    1773.044
     3747.838     10055.227    1745.336      3799.638     10086.240    1782.929
     3893.523     10138.428    1753.150      3943.886     10172.668    1793.081
     4030.893     10216.295    1758.001      4080.135     10253.477    1801.072
     4168.413     10293.999    1766.568      4213.380     10331.155    1811.428
     4310.448     10375.553    1785.099      4354.396     10414.753    1835.448
     4448.984     10454.380    1806.322      4509.092     10510.878    1879.350
     4600.078     10545.614    1844.857      4636.392     10580.358    1893.550
     4732.830     10619.327    1861.452      4764.915     10649.970    1905.468
     4883.661     10710.119    1900.382      4911.058     10735.831    1936.238
     5030.758     10797.076    1924.732      5063.062     10826.871    1962.014
     5156.684     10864.616    1921.494      5196.594     10900.934    1961.728
     5287.822     10937.188    1921.441      5329.311     10974.520    1959.700
     5425.621     11015.877    1922.785      5466.004     11051.859    1960.955
     5567.460     11098.189    1923.919      5600.210     11127.122    1958.662
     5711.094     11182.052    1926.661      5739.866     11207.304    1960.784
     5854.604     11265.763    1931.677      5881.911     11289.637    1965.121
     5995.741     11347.370    1931.418      6020.345     11368.869    1964.919
      476.651      7982.549    1726.644       477.022      7981.899    1752.081
      616.615      8063.464    1730.827       618.103      8062.859    1758.481
      756.544      8144.431    1733.153       759.597      8143.902    1761.451
      896.202      8225.415    1733.676       901.575      8225.005    1762.574
     1035.074      8306.398    1732.183      1044.274      8306.152    1763.505
     1173.626      8387.334    1731.871      1186.475      8387.348    1761.847
     1310.546      8468.214    1730.220      1328.024      8468.526    1760.587
     1448.143      8549.063    1731.289      1471.610      8549.742    1763.719
     1587.937      8629.972    1735.054      1615.846      8631.007    1767.544
     1724.114      8710.728    1733.958      1754.677      8712.068    1765.700
     1862.649      8791.555    1735.017      1892.593      8793.055    1763.730
     2007.119      8872.693    1741.343      2037.353      8874.399    1768.539
     2150.562      8953.817    1746.445      2184.399      8955.958    1775.145
     2293.226      9034.928    1749.469      2332.868      9037.752    1780.362
     2432.875      9115.840    1747.556      2475.898      9119.329    1777.899
     2570.846      9196.583    1742.620      2622.704      9201.460    1776.229
     2700.303      9276.292    1732.432      2758.682      9282.840    1767.833
     2836.405      9356.357    1728.395      2901.525      9365.271    1764.063
     2968.494      9435.358    1724.110      3044.132      9448.089    1762.547
     3102.523      9513.804    1721.248      3166.525      9527.300    1754.258
     3245.225      9593.468    1722.727      3305.835      9609.562    1754.872
     3390.515      9673.789    1725.021      3443.204      9691.294    1754.398
     3531.322      9752.477    1725.484      3586.337      9775.167    1757.786
     3675.759      9832.626    1728.821      3729.928      9859.928    1762.566
     3824.985      9916.227    1736.469      3885.728      9952.721    1778.026
     3967.538      9996.917    1742.609      4022.096     10034.889    1784.154
     4106.869     10075.625    1750.517      4163.925     10120.488    1798.182
     4247.731     10155.651    1763.402      4306.469     10207.079    1819.238
     4393.433     10240.729    1786.740      4438.976     10284.319    1838.119
     4522.362     10310.102    1797.383      4595.179     10383.759    1886.096
     4688.162     10417.358    1855.340      4721.584     10451.765    1899.228
     4827.077     10496.800    1881.836      4860.346     10530.452    1926.693
     4975.809     10585.403    1918.178      5005.929     10614.618    1955.989
     5105.912     10655.968    1923.142      5138.434     10686.374    1958.430
     5228.570     10720.411    1917.992      5267.001     10755.485    1954.150
     5366.086     10798.812    1923.510      5409.282     10837.578    1961.333
     5505.435     10878.912    1925.638      5546.676     10915.427    1963.749
     5647.085     10961.067    1926.152      5680.810     10990.564    1961.810
     5787.820     11042.417    1925.114      5819.465     11069.802    1962.737
     5933.423     11127.928    1932.408      5963.113     11153.426    1968.140
     6074.769     11209.729    1932.050      6101.562     11232.649    1967.919
      556.117      7844.909    1724.997       556.496      7844.248    1750.425
      695.808      7925.933    1723.968       697.044      7925.442    1745.853
      835.253      8006.919    1724.252       838.268      8006.414    1750.229
      974.503      8087.863    1725.484       979.808      8087.477    1751.497
     1113.945      8168.776    1728.201      1123.475      8168.542    1757.567
     1253.229      8249.699    1730.476      1265.378      8249.728    1756.222
     1391.265      8330.604    1731.227      1408.544      8330.922    1758.767
     1529.525      8411.492    1733.109      1554.539      8412.209    1764.943
     1664.546      8492.252    1731.325      1695.312      8493.358    1764.284
     1801.754      8573.052    1731.765      1838.383      8574.582    1766.726
     1940.438      8653.896    1733.142      1977.789      8655.648    1766.064
     2081.359      8734.838    1735.976      2122.133      8736.962    1769.837
     2222.786      8815.811    1739.177      2261.356      8818.033    1769.167
     2371.232      8897.238    1745.569      2414.888      8900.028    1775.589
     2516.804      8978.575    1745.686      2565.993      8982.091    1775.640
     2656.855      9059.574    1740.129      2713.052      9064.156    1771.922
     2788.517      9139.793    1730.344      2849.505      9145.648    1763.397
     2921.930      9219.880    1724.058      3000.069      9229.076    1761.375
     3051.884      9299.007    1718.787      3139.176      9311.771    1757.001
     3183.217      9377.352    1714.586      3260.564      9391.713    1750.425
     3327.776      9457.537    1717.137      3396.985      9474.031    1749.537
     3469.367      9536.814    1717.318      3534.989      9556.822    1749.482
     3606.707      9614.002    1716.269      3673.069      9639.779    1751.090
     3752.215      9693.955    1719.967      3814.959      9724.601    1756.220
     3897.875      9774.691    1724.680      3956.955      9810.126    1763.459
     4040.419      9854.310    1730.312      4091.422      9890.778    1768.464
     4175.269      9928.138    1735.143      4229.177      9972.888    1779.259
     4320.014     10010.136    1750.707      4379.022     10066.224    1805.657
     4459.227     10087.845    1764.481      4508.723     10140.381    1820.981
     4592.873     10160.305    1777.886      4682.490     10262.381    1892.577
     4718.872     10225.426    1784.835      4816.531     10337.864    1913.244
     4930.093     10386.577    1907.616      4962.597     10422.306    1951.333
     5067.305     10461.486    1928.377      5100.085     10494.917    1968.657
     5187.315     10520.816    1923.621      5223.211     10555.178    1961.215
     5307.685     10582.772    1918.131      5350.623     10622.210    1956.616
     5444.782     10660.842    1923.827      5490.414     10701.677    1962.516
     5583.038     10740.019    1925.405      5621.266     10773.613    1960.503
     5727.075     10824.272    1928.330      5765.148     10857.203    1968.714
     5870.951     10908.315    1930.813      5903.986     10936.484    1970.501
     6015.903     10993.197    1937.074      6046.997     11019.414    1974.323
     6157.301     11075.033    1936.745      6185.296     11098.467    1974.204
      635.579      7707.277    1723.173       635.991      7706.557    1751.795
      775.136      7788.339    1720.203       776.590      7787.784    1745.573
      914.627      7869.289    1721.979       917.838      7868.776    1748.509
     1053.543      7950.249    1721.876      1058.788      7949.891    1746.018
     1192.212      8031.163    1723.052      1202.828      8030.931    1753.393
     1330.954      8112.057    1725.390      1344.686      8112.111    1752.243
     1471.550      8192.987    1730.989      1489.178      8193.321    1756.988
     1611.689      8273.943    1735.189      1635.606      8274.621    1763.787
     1748.063      8354.781    1734.647      1778.447      8355.835    1765.672
     1880.913      8435.448    1730.740      1912.143      8436.680    1759.434
     2017.246      8516.208    1730.113      2055.439      8517.872    1762.612
     2153.771      8596.946    1729.102      2195.240      8598.920    1762.289
     2297.245      8678.005    1733.570      2338.311      8680.138    1764.023
     2442.843      8759.207    1736.765      2490.577      8761.913    1766.803
     2592.925      8840.742    1737.241      2651.487      8844.392    1769.344
     2736.096      8921.939    1731.052      2802.412      8926.540    1765.027
     2875.700      9002.937    1723.790      2943.979      9008.324    1757.550
     3005.015      9082.980    1714.564      3088.637      9090.907    1750.927
     3131.385      9161.984    1706.861      3231.551      9174.373    1751.045
     3271.978      9242.100    1708.161      3358.279      9256.037    1746.898
     3415.321      9322.511    1711.495      3488.817      9337.969    1743.631
     3552.042      9401.031    1711.132      3621.927      9420.190    1742.368
     3694.039      9480.264    1713.518      3755.618      9502.271    1743.452
     3836.042      9559.159    1716.115      3900.579      9588.884    1751.423
     3978.354      9637.955    1718.870      4039.583      9673.888    1757.634
     4115.512      9713.105    1719.907      4171.751      9754.189    1761.346
     4250.937      9785.708    1724.559      4310.896      9838.528    1773.048
     4397.223      9867.974    1739.697      4451.699      9924.880    1790.885
     4538.397      9946.367    1752.314      4581.266      9998.478    1803.709
     4672.410     10015.161    1759.932      4709.580     10067.847    1814.461
     4798.690     10079.682    1768.590      4897.673     10218.314    1909.109
     5002.764     10246.253    1888.469      5041.998     10294.627    1943.222
     5144.749     10324.178    1916.926      5178.241     10360.321    1958.377
     5268.018     10385.127    1918.176      5308.107     10424.505    1959.339
     5394.971     10452.686    1921.134      5440.706     10494.946    1960.878
     5530.595     10529.246    1927.229      5577.819     10571.256    1966.568
     5665.132     10605.115    1927.521      5708.722     10642.978    1967.620
     5812.056     10691.758    1935.067      5847.829     10722.240    1972.891
     5956.088     10775.815    1938.941      5987.997     10802.546    1977.081
     6100.270     10859.933    1943.395      6131.083     10885.382    1980.170