NOECHO

-- =============================================================================
-- 
-- Exported from Reek_base_sim
-- 
-- Exported by user asny from RMS11 at 2020-02-19 15:45:21
-- 
-- =============================================================================

MAPUNITS
'METRES  ' /

MAPAXES
456514.821 5939176.980
456514.821 5927115.548
467218.290 5927115.548 /

GRIDUNIT
'METRES  ' '        ' /

SPECGRID
  40  64  14   1  F  /

GDORIENT
INC INC INC DOWN RIGHT /

COORD
        0.000      8808.239    1727.557         0.306      8807.629    1759.278
      139.872      8889.283    1727.978       141.077      8888.742    1758.193
      279.636      8970.297    1730.785       281.827      8969.828    1759.046
      419.472      9051.266    1737.501       422.977      9050.864    1765.469
      559.309      9132.236    1743.836       564.973      9131.885    1775.304
      698.683      9213.224    1746.419       707.728      9212.943    1782.887
      838.064      9294.196    1747.952       849.980      9294.064    1784.766
      977.449      9375.157    1747.754       992.378      9375.207    1785.905
     1115.646      9456.087    1742.867      1134.486      9456.372    1783.719
     1252.188      9536.937    1735.001      1275.404      9537.535    1777.957
     1389.080      9617.718    1730.400      1413.759      9618.618    1769.171
     1527.273      9698.480    1731.353      1552.865      9699.701    1765.028
     1665.218      9779.166    1733.996      1688.894      9780.584    1760.539
     1802.238      9859.697    1735.453      1825.199      9861.394    1759.082
     1939.552      9940.109    1737.527      1971.151      9942.969    1769.101
     2079.745     10020.652    1743.532      2123.267     10025.482    1786.404
     2217.268     10100.730    1747.497      2267.221     10107.532    1795.701
     2354.096     10180.406    1749.962      2404.450     10188.811    1797.021
     2493.408     10260.191    1753.851      2543.429     10270.367    1797.946
     2636.074     10340.530    1760.685      2686.374     10352.907    1802.332
     2779.024     10420.969    1767.370      2829.038     10435.714    1807.710
     2918.559     10500.315    1769.689      2970.188     10518.313    1809.849
     3055.219     10578.257    1767.182      3109.816     10600.429    1808.887
     3198.278     10658.636    1767.587      3251.026     10683.201    1809.965
     3341.987     10739.626    1767.699      3390.002     10764.896    1809.861
     3479.881     10817.581    1763.648      3524.245     10843.641    1806.614
     3618.765     10895.886    1762.837      3661.773     10923.766    1808.273
     3759.860     10975.642    1766.339      3801.573     11005.131    1814.811
     3901.821     11056.277    1773.458      3940.779     11085.918    1823.409
     4042.507     11136.237    1784.734      4079.167     11165.833    1834.006
     4187.035     11219.696    1807.665      4221.033     11248.409    1851.724
     4331.958     11303.982    1831.247      4365.220     11332.970    1872.527
     4468.852     11381.491    1842.096      4505.200     11413.805    1887.826
     4612.057     11464.723    1861.313      4649.250     11498.181    1909.475
     4759.056     11551.518    1887.503      4797.184     11586.077    1936.189
     4903.058     11635.685    1906.773      4940.476     11669.825    1953.539
     5041.354     11714.665    1913.480      5079.241     11749.466    1961.921
     5180.246     11794.169    1916.253      5214.483     11825.853    1963.820
     5321.859     11876.189    1920.742      5351.823     11904.148    1966.449
     5463.499     11958.252    1926.129      5489.836     11983.054    1969.761
     5604.117     12039.357    1925.831      5627.308     12061.432    1969.624
       79.446      8670.604    1727.572        79.775      8670.026    1759.276
      219.344      8751.647    1728.018       220.510      8751.135    1758.219
      359.167      8832.653    1730.853       361.275      8832.208    1759.113
      499.075      8913.622    1737.550       502.472      8913.238    1765.529
      638.979      8994.593    1743.857       644.522      8994.260    1775.321
      778.509      9075.582    1746.458       787.532      9075.315    1782.896
      918.077      9156.559    1747.999       930.137      9156.439    1784.780
     1057.637      9237.528    1747.745      1072.800      9237.590    1785.902
     1196.105      9318.473    1742.840      1214.869      9318.761    1783.703
     1333.105      9399.345    1735.051      1355.937      9399.932    1777.901
     1470.352      9480.161    1730.523      1494.825      9481.039    1769.095
     1609.009      9560.975    1731.490      1634.495      9562.160    1764.993
     1747.506      9641.731    1734.077      1770.846      9643.088    1760.456
     1885.228      9722.369    1735.583      1907.535      9723.963    1759.239
     2023.178      9802.918    1737.796      2053.174      9805.538    1769.336
     2163.266      9883.553    1743.715      2204.170      9887.932    1786.527
     2300.516      9963.729    1747.680      2347.420      9969.899    1795.719
     2437.667     10043.614    1750.198      2484.572     10051.197    1796.996
     2578.038     10123.790    1754.225      2624.921     10133.054    1797.976
     2721.598     10204.571    1761.077      2769.243     10215.996    1802.389
     2864.915     10285.414    1767.682      2912.236     10299.054    1807.829
     3005.027     10365.318    1769.725      3053.520     10381.903    1809.838
     3143.123     10444.261    1767.315      3193.676     10464.468    1808.938
     3286.519     10525.275    1767.828      3334.850     10547.496    1810.069
     3429.835     10606.564    1767.599      3474.001     10629.570    1809.836
     3567.860     10685.118    1763.559      3608.908     10709.033    1806.737
     3706.223     10763.606    1763.046      3746.396     10789.482    1808.614
     3846.045     10842.931    1766.679      3885.276     10870.535    1815.228
     3986.613     10922.870    1773.873      4022.918     10950.395    1823.657
     4126.233     11002.223    1785.385      4159.983     11029.391    1834.327
     4269.524     11084.802    1808.277      4300.226     11110.659    1851.812
     4412.342     11167.337    1831.345      4442.406     11193.454    1872.169
     4548.611     11244.330    1842.132      4581.837     11273.747    1887.598
     4691.554     11327.333    1861.337      4725.384     11357.600    1908.904
     4837.688     11413.322    1887.337      4872.378     11444.548    1935.292
     4980.886     11496.732    1906.581      5016.180     11528.670    1953.095
     5119.609     11576.105    1913.451      5156.352     11609.549    1961.842
     5259.206     11656.265    1916.252      5292.710     11686.959    1963.928
     5401.513     11738.912    1920.771      5431.066     11766.189    1966.617
     5543.480     11821.268    1926.149      5569.711     11845.685    1969.912
     5683.872     11902.164    1925.850      5707.282     11924.177    1969.769
      158.880      8533.019    1727.028       159.257      8532.362    1759.941
      298.655      8614.089    1725.831       299.953      8613.509    1757.538
      438.193      8695.116    1726.767       440.510      8694.626    1755.609
      578.116      8776.036    1734.271       581.811      8775.626    1762.598
      718.113      8856.978    1741.222       725.090      8856.574    1777.522
      857.603      8937.955    1743.772       867.857      8937.675    1781.553
      996.907      9018.927    1744.746      1009.455      9018.822    1779.404
     1137.320      9099.893    1746.814      1154.271      9099.978    1785.181
     1275.977      9180.844    1742.780      1296.242      9181.160    1782.744
     1411.540      9261.690    1732.986      1436.371      9262.312    1775.461
     1548.191      9342.487    1727.895      1574.589      9343.392    1765.900
     1687.768      9423.340    1729.959      1715.664      9424.563    1763.725
     1827.143      9504.162    1733.269      1852.352      9505.527    1759.949
     1964.606      9584.818    1734.256      1984.435      9586.128    1754.407
     2101.094      9665.290    1734.915      2134.857      9668.009    1769.364
     2242.166      9746.029    1741.898      2285.468      9750.303    1785.664
     2377.429      9826.018    1743.848      2429.181      9832.317    1794.625
     2514.921      9905.964    1746.587      2568.145      9913.970    1797.086
     2654.285      9985.928    1749.330      2702.844      9994.918    1792.358
     2797.661     10066.543    1754.980      2846.691     10077.641    1795.541
     2945.527     10148.466    1763.889      2996.903     10162.557    1805.475
     3085.701     10228.474    1764.955      3135.467     10244.807    1805.271
     3220.879     10306.384    1759.875      3272.383     10326.304    1802.711
     3367.968     10388.885    1763.739      3414.348     10409.682    1804.973
     3510.586     10469.885    1763.569      3554.920     10492.564    1806.250
     3645.921     10546.968    1757.387      3687.887     10571.113    1800.950
     3785.111     10625.890    1758.205      3825.125     10651.457    1802.656
     3923.566     10704.213    1761.078      3964.616     10732.964    1810.705
     4066.111     10785.543    1772.346      4103.441     10813.787    1822.451
     4201.863     10861.807    1780.019      4236.766     10889.876    1830.025
     4347.682     10946.400    1807.628      4376.842     10970.919    1849.267
     4495.289     11033.078    1838.845      4523.354     11057.378    1877.605
     4625.801     11105.098    1842.594      4657.413     11132.924    1886.267
     4768.674     11188.037    1861.899      4800.047     11215.859    1905.646
     4918.806     11277.537    1893.009      4954.400     11309.192    1940.696
     5063.795     11362.516    1913.675      5096.579     11391.735    1954.898
     5196.046     11436.138    1912.110      5234.488     11470.506    1959.807
     5334.426     11515.211    1912.764      5370.241     11547.363    1960.202
     5477.404     11598.410    1917.375      5507.269     11625.366    1960.304
     5620.056     11681.335    1923.132      5647.003     11705.822    1964.354
     5760.622     11762.370    1922.817      5784.821     11784.551    1964.158
      238.337      8395.397    1728.363       238.770      8394.641    1762.992
      378.042      8476.503    1725.656       379.600      8475.788    1761.501
      517.548      8557.513    1727.058       520.796      8556.817    1764.348
      657.188      8638.448    1731.921       662.271      8637.885    1767.370
      796.175      8719.424    1733.700       806.002      8718.865    1779.827
      935.463      8800.363    1736.846       947.332      8800.050    1776.237
     1074.762      8881.305    1739.151      1090.212      8881.187    1777.367
     1214.579      8962.248    1740.970      1233.534      8962.347    1779.013
     1355.645      9043.216    1742.901      1376.418      9043.530    1778.787
     1493.966      9124.138    1738.772      1519.333      9124.741    1776.588
     1632.207      9205.026    1735.001      1661.899      9205.979    1772.852
     1770.591      9285.884    1734.325      1799.287      9287.048    1765.596
     1907.914      9366.651    1734.974      1938.497      9368.173    1764.669
     2043.798      9447.260    1734.297      2069.806      9448.828    1759.120
     2179.517      9527.725    1734.302      2211.027      9530.033    1764.706
     2317.909      9608.234    1738.466      2361.779      9612.175    1779.703
     2457.938      9688.765    1744.189      2516.381      9695.271    1796.806
     2598.656      9769.270    1749.022      2659.550      9777.704    1801.327
     2740.262      9849.830    1752.738      2797.280      9859.628    1798.583
     2873.316      9928.530    1748.811      2925.680      9939.626    1788.599
     3021.723     10010.338    1755.985      3082.981     10026.226    1802.237
     3163.112     10090.568    1756.776      3221.893     10109.013    1802.596
     3308.468     10172.213    1759.885      3362.001     10192.242    1803.801
     3455.174     10254.948    1764.586      3499.667     10274.467    1803.782
     3590.967     10332.947    1760.042      3637.724     10356.586    1804.246
     3730.646     10412.548    1759.690      3778.204     10439.816    1806.952
     3867.683     10490.393    1759.622      3916.881     10521.905    1811.478
     4007.220     10569.638    1765.423      4051.292     10600.722    1815.862
     4145.236     10647.740    1773.285      4180.790     10674.953    1818.512
     4289.959     10731.276    1795.336      4323.733     10758.763    1841.691
     4438.010     10818.192    1827.269      4467.371     10843.070    1868.363
     4574.214     10895.298    1843.478      4600.905     10918.481    1880.316
     4708.297     10970.493    1852.892      4735.628     10994.527    1890.252
     4859.986     11061.261    1884.208      4882.808     11081.400    1914.787
     5006.496     11147.515    1908.349      5037.495     11174.852    1946.629
     5141.143     11223.324    1914.106      5179.532     11257.135    1958.352
     5271.995     11295.815    1910.864      5308.933     11328.333    1953.036
     5412.844     11377.107    1914.199      5449.993     11409.843    1959.377
     5554.618     11459.210    1916.895      5583.728     11484.930    1955.294
     5697.954     11542.697    1923.038      5724.499     11566.257    1960.096
     5838.633     11623.827    1922.708      5862.502     11645.155    1959.856
      317.765      8257.824    1726.804       318.256      8256.967    1762.845
      457.486      8338.885    1726.345       459.385      8337.999    1766.608
      597.013      8419.886    1728.100       600.534      8419.122    1764.827
      736.099      8500.880    1728.873       742.687      8500.146    1769.894
      874.984      8581.830    1730.632       885.267      8581.246    1773.574
     1013.833      8662.759    1732.577      1027.710      8662.396    1773.496
     1152.811      8743.683    1734.834      1169.508      8743.556    1771.561
     1291.053      8824.604    1734.949      1311.950      8824.704    1771.990
     1432.856      8905.556    1739.661      1457.810      8905.908    1777.111
     1573.414      8986.515    1740.185      1596.966      8987.034    1770.283
     1710.270      9067.372    1735.413      1743.056      9068.337    1771.218
     1850.134      9148.287    1736.155      1888.588      9149.708    1772.694
     1989.908      9229.188    1738.631      2027.304      9230.869    1771.262
     2125.336      9309.837    1737.664      2157.839      9311.597    1766.154
     2259.472      9390.278    1736.268      2299.009      9392.873    1771.416
     2396.327      9470.726    1738.086      2443.543      9474.528    1778.264
     2534.957      9551.145    1741.106      2596.029      9557.268    1790.062
     2678.516      9631.989    1746.937      2742.509      9640.035    1795.316
     2815.272      9711.830    1746.248      2883.639      9722.595    1794.750
     2950.488      9790.938    1743.348      3015.062      9803.614    1787.258
     3089.666      9870.303    1741.880      3162.154      9887.933    1792.236
     3236.002      9951.370    1744.502      3301.066      9970.782    1792.556
     3382.562     10032.949    1747.730      3445.694     10055.742    1797.719
     3531.622     10116.222    1754.998      3584.826     10139.089    1800.203
     3670.735     10195.645    1755.266      3722.168     10221.488    1801.722
     3810.998     10275.524    1757.292      3863.422     10305.759    1806.397
     3950.083     10354.669    1761.079      3999.550     10386.815    1809.728
     4088.747     10433.407    1767.906      4134.593     10466.463    1816.642
     4225.552     10510.566    1777.118      4259.293     10537.179    1816.972
     4382.151     10604.259    1816.206      4418.775     10635.056    1862.721
     4524.227     10686.641    1841.583      4552.014     10710.722    1879.178
     4650.362     10755.015    1845.522      4677.494     10778.898    1882.605
     4793.823     10838.527    1869.396      4815.330     10857.537    1897.810
     4951.320     10934.456    1906.730      4978.946     10958.815    1940.934
     5086.452     11010.635    1913.929      5120.760     11040.746    1952.167
     5210.194     11076.929    1906.801      5249.966     11111.660    1948.278
     5348.203     11155.774    1910.701      5388.288     11190.628    1952.804
     5493.736     11241.155    1918.595      5530.269     11272.829    1959.907
     5634.281     11322.193    1919.798      5660.330     11344.759    1951.813
     5776.851     11404.979    1924.595      5802.418     11427.161    1957.554
     5917.621     11486.195    1924.324      5940.587     11506.204    1957.280
      397.188      8120.260    1724.380       397.830      8119.139    1767.392
      537.030      8201.217    1728.242       539.384      8200.112    1773.487
      676.472      8282.256    1728.239       680.472      8281.385    1765.706
      815.949      8363.206    1730.960       821.702      8362.564    1762.672
      954.318      8444.206    1729.583       964.116      8443.650    1765.585
     1091.576      8525.175    1727.203      1106.936      8524.771    1767.167
     1230.120      8606.073    1729.676      1249.977      8605.914    1768.577
     1369.680      8686.977    1733.486      1396.148      8687.082    1775.293
     1508.217      8767.882    1734.874      1536.855      8768.247    1772.683
     1646.708      8848.772    1734.892      1678.054      8849.399    1769.470
     1786.815      8929.689    1735.232      1825.562      8930.717    1771.125
     1927.195      9010.610    1736.392      1963.984      9011.826    1766.524
     2068.458      9091.563    1739.433      2107.875      9093.139    1770.098
     2201.562      9172.133    1736.671      2239.254      9173.938    1766.585
     2344.067      9253.095    1741.590      2392.843      9255.912    1780.630
     2485.077      9333.976    1744.534      2536.269      9337.593    1783.067
     2619.777      9414.284    1742.340      2689.716      9420.465    1791.360
     2762.874      9495.215    1745.975      2832.300      9502.990    1791.213
     2888.845      9573.782    1738.106      2962.908      9584.277    1783.269
     3023.097      9652.624    1734.104      3101.467      9666.680    1780.888
     3165.083      9732.350    1732.847      3238.387      9748.917    1779.082
     3312.105      9813.290    1734.148      3378.203      9831.911    1779.574
     3455.615      9893.469    1734.293      3524.939      9917.503    1786.242
     3600.449      9974.339    1738.656      3663.200     10000.704    1788.775
     3741.794     10053.948    1741.844      3803.100     10084.636    1793.455
     3884.064     10134.178    1747.262      3946.729     10170.811    1801.997
     4026.384     10214.806    1755.571      4083.327     10252.845    1807.343
     4172.392     10298.616    1771.181      4219.990     10334.311    1818.226
     4312.527     10378.604    1787.116      4346.125     10406.388    1824.853
     4452.402     10458.615    1808.468      4506.544     10506.585    1872.884
     4603.912     10549.641    1845.357      4631.958     10575.042    1882.258
     4734.531     10621.752    1856.827      4756.794     10641.981    1886.839
     4886.353     10712.938    1892.988      4907.473     10731.906    1919.648
     5032.830     10799.070    1914.894      5056.920     10820.418    1942.164
     5156.164     10864.806    1908.674      5189.380     10893.922    1942.205
     5287.293     10937.626    1909.041      5324.104     10969.593    1944.214
     5423.451     11014.930    1909.976      5459.382     11045.875    1945.461
     5565.878     11097.653    1913.251      5597.089     11124.346    1947.085
     5709.462     11181.329    1917.116      5740.799     11207.998    1954.170
     5854.466     11266.175    1924.440      5883.484     11290.816    1959.874
     5995.442     11347.575    1924.108      6021.618     11369.828    1959.627
      476.563      7982.778    1718.609       477.378      7981.356    1769.197
      616.268      8063.689    1723.766       618.946      8062.437    1770.578
      755.531      8144.710    1724.159       760.046      8143.732    1762.165
      894.236      8225.704    1723.946       900.587      8224.999    1754.993
     1033.562      8306.588    1727.486      1045.080      8305.935    1764.723
     1171.931      8387.524    1728.274      1189.023      8387.069    1767.847
     1309.009      8468.454    1727.854      1329.887      8468.273    1764.653
     1448.046      8549.355    1731.626      1474.124      8549.430    1768.793
     1585.907      8630.250    1733.533      1613.970      8630.562    1766.630
     1722.100      8711.099    1732.597      1756.188      8711.700    1765.486
     1864.006      8792.042    1735.349      1909.385      8793.103    1771.755
     2003.583      8872.935    1735.870      2046.216      8874.172    1766.627
     2142.247      8953.784    1736.470      2188.210      8955.388    1768.643
     2281.537      9034.628    1737.894      2333.300      9036.778    1774.936
     2430.394      9115.918    1745.204      2485.420      9118.647    1783.747
     2572.622      9196.969    1745.850      2629.605      9200.405    1783.167
     2704.506      9277.292    1739.788      2767.219      9282.051    1777.991
     2833.662      9356.984    1733.961      2906.814      9364.137    1774.462
     2969.456      9436.828    1732.488      3052.379      9447.208    1774.684
     3107.295      9516.455    1730.143      3190.178      9529.809    1773.229
     3244.748      9595.447    1725.600      3323.595      9611.815    1770.204
     3389.782      9675.763    1724.617      3456.641      9693.384    1766.727
     3526.799      9753.611    1720.792      3595.923      9776.419    1768.416
     3668.908      9832.582    1723.375      3732.521      9858.517    1770.159
     3814.842      9913.305    1730.390      3876.685      9944.041    1778.558
     3958.045      9993.208    1737.391      4008.972     10023.473    1778.605
     4095.779     10069.836    1742.730      4154.147     10110.373    1791.595
     4247.927     10157.482    1763.887      4299.891     10198.801    1812.277
     4396.604     10244.621    1789.736      4431.812     10275.812    1828.809
     4524.993     10314.175    1799.105      4595.075     10380.694    1882.645
     4691.497     10420.517    1854.764      4723.594     10451.648    1895.941
     4835.073     10504.513    1884.472      4859.405     10527.823    1916.463
     4982.720     10591.590    1914.792      5006.514     10613.615    1943.520
     5109.490     10659.484    1914.455      5139.998     10686.851    1946.593
     5231.140     10723.601    1908.291      5261.634     10750.381    1936.793
     5363.098     10797.211    1909.532      5403.136     10831.844    1945.593
     5505.069     10879.564    1915.290      5538.462     10908.099    1947.361
     5644.254     10959.548    1914.687      5676.306     10986.634    1949.192
     5786.771     11042.341    1916.712      5820.201     11070.333    1956.068
     5932.385     11127.665    1924.488      5963.315     11153.404    1961.257
     6073.658     11209.331    1924.133      6101.625     11232.546    1961.031
      556.023      7845.150    1717.946       556.813      7843.771    1764.544
      695.559      7926.130    1720.251       698.033      7924.990    1760.229
      834.884      8007.097    1722.267       839.439      8006.124    1757.217
      973.804      8088.058    1722.962       980.448      8087.329    1752.207
     1113.709      8168.919    1727.346      1125.103      8168.275    1760.425
     1252.682      8249.861    1729.061      1269.686      8249.404    1765.004
     1392.095      8330.798    1732.390      1412.020      8330.609    1764.514
     1528.196      8411.740    1731.693      1554.283      8411.782    1765.575
     1667.094      8492.660    1735.236      1698.330      8492.947    1768.459
     1805.667      8573.575    1736.605      1848.286      8574.212    1773.043
     1940.618      8654.406    1733.917      1988.272      8655.353    1768.266
     2075.294      8735.179    1731.363      2121.992      8736.329    1762.227
     2214.792      8816.034    1732.144      2266.364      8817.556    1765.302
     2354.857      8896.893    1732.833      2413.349      8898.931    1770.349
     2502.283      8978.037    1736.046      2576.875      8981.104    1781.441
     2652.269      9059.401    1738.209      2719.036      9062.708    1776.350
     2788.039      9140.104    1732.558      2865.265      9144.915    1773.971
     2920.583      9220.358    1728.025      2998.067      9226.743    1765.141
     3046.686      9299.459    1722.514      3133.087      9308.861    1759.990
     3188.592      9379.704    1721.931      3272.840      9391.724    1761.564
     3333.190      9460.228    1721.856      3404.714      9473.662    1758.587
     3465.206      9537.823    1714.275      3526.126      9552.625    1749.157
     3596.320      9613.681    1708.251      3658.154      9632.795    1746.663
     3739.094      9692.038    1711.392      3800.282      9715.843    1752.213
     3886.135      9772.084    1718.401      3947.555      9801.967    1762.488
     4032.949      9852.783    1727.818      4084.948      9883.996    1766.974
     4167.020      9925.472    1730.534      4223.238      9966.244    1774.607
     4314.536     10007.974    1745.806      4368.149     10053.886    1794.089
     4459.737     10090.706    1764.343      4500.875     10130.689    1810.570
     4594.924     10165.103    1779.191      4684.719     10259.643    1891.659
     4721.654     10231.757    1784.961      4819.734     10337.052    1910.204
     4938.312     10393.263    1908.822      4962.959     10418.711    1940.815
     5072.612     10465.551    1922.536      5095.632     10487.821    1949.678
     5188.139     10521.738    1912.360      5220.698     10551.537    1945.250
     5309.115     10585.007    1908.283      5353.375     10624.043    1947.828
     5438.781     10656.727    1908.497      5477.552     10690.112    1942.539
     5579.103     10737.762    1912.572      5613.543     10766.921    1945.833
     5723.636     10822.313    1916.980      5754.853     10848.351    1951.227
     5867.806     10906.476    1920.402      5898.342     10931.617    1956.931
     6013.297     10991.641    1927.765      6043.263     11016.065    1963.095
     6154.729     11073.439    1927.409      6181.761     11095.343    1962.841
      635.492      7707.505    1717.419       636.296      7706.101    1764.003
      774.826      7788.574    1716.448       777.447      7787.396    1756.511
      913.925      7869.544    1717.899       918.677      7868.553    1751.895
     1052.858      7950.465    1719.287      1059.552      7949.745    1746.492
     1191.973      8031.354    1721.351      1203.255      8030.725    1751.565
     1330.834      8112.270    1723.844      1343.771      8111.919    1749.472
     1471.453      8193.176    1729.766      1491.145      8192.973    1759.208
     1612.201      8274.126    1735.059      1638.301      8274.128    1766.098
     1749.617      8355.079    1736.313      1782.999      8355.306    1768.486
     1885.054      8435.985    1735.046      1924.549      8436.447    1765.853
     2016.634      8516.795    1730.837      2065.903      8517.570    1764.148
     2149.432      8597.560    1727.476      2207.056      8598.689    1764.005
     2288.078      8678.397    1727.221      2348.379      8679.817    1763.999
     2429.345      8759.283    1726.865      2495.860      8761.135    1765.298
     2575.246      8840.320    1725.898      2651.195      8842.803    1766.951
     2726.302      8921.614    1724.986      2804.611      8924.647    1764.893
     2874.521      9002.952    1723.156      2955.413      9006.768    1762.196
     3007.726      9083.568    1718.047      3093.467      9088.900    1755.224
     3135.021      9163.232    1712.708      3230.237      9171.815    1754.402
     3285.378      9244.791    1718.149      3372.433      9255.650    1758.167
     3417.509      9323.965    1714.532      3491.963      9336.445    1750.554
     3544.757      9401.032    1707.147      3608.274      9415.036    1740.256
     3677.761      9477.774    1704.220      3754.734      9499.655    1747.256
     3816.679      9554.983    1705.943      3879.326      9577.631    1743.558
     3960.229      9632.833    1709.991      4020.914      9661.054    1749.893
     4103.500      9709.932    1715.525      4161.507      9744.668    1756.573
     4245.496      9786.072    1722.898      4309.535      9834.383    1771.236
     4398.498      9872.514    1740.649      4445.110      9915.628    1782.504
     4539.580      9950.743    1752.495      4581.792      9996.775    1801.688
     4673.934     10021.242    1761.018      4709.512     10066.532    1811.048
     4799.250     10085.035    1766.891      4902.805     10218.037    1907.392
     5016.750     10260.050    1897.062      5043.221     10290.346    1932.086
     5151.018     10329.089    1912.459      5180.890     10359.410    1947.669
     5275.626     10392.216    1915.003      5314.035     10428.083    1953.253
     5399.493     10457.375    1915.858      5439.314     10492.583    1950.905
     5527.088     10527.119    1916.152      5561.621     10556.611    1946.466
     5658.030     10600.215    1913.133      5690.550     10627.375    1945.262
     5804.309     10686.185    1920.400      5835.153     10711.476    1954.943
     5951.443     10772.686    1927.313      5980.625     10796.237    1962.536
     6096.745     10857.588    1933.522      6126.036     10880.922    1967.980