NOECHO

-- =============================================================================
-- 
-- Exported from Reek_base_sim
-- 
-- Exported by user asny from RMS11 at 2020-02-19 16:55:58
-- 
-- =============================================================================

MAPUNITS
'METRES  ' /

MAPAXES
456514.907 5939174.724
456514.907 5927115.548
467218.409 5927115.548 /

GRIDUNIT
'METRES  ' '        ' /

SPECGRID
  40  64  14   1  F  /

GDORIENT
INC INC INC DOWN RIGHT /

COORD
        0.000      8808.085    1730.233         0.122      8807.810    1764.163
      140.045      8889.127    1731.078       140.794      8888.858    1764.714
      279.999      8970.159    1733.293       281.596      8969.886    1767.974
      419.830      9051.174    1736.467       422.775      9050.907    1774.612
      559.473      9132.173    1739.549       564.123      9131.970    1778.918
      699.125      9213.151    1743.678       705.610      9213.060    1781.414
      838.551      9294.116    1746.413       847.260      9294.179    1782.418
      977.750      9375.057    1747.662       988.734      9375.321    1781.668
     1116.676      9455.959    1747.335      1128.918      9456.441    1778.086
     1255.229      9536.806    1745.533      1270.193      9537.618    1779.007
     1393.520      9617.580    1743.130      1413.125      9618.946    1783.987
     1531.365      9698.248    1740.393      1553.811      9700.180    1782.983
     1669.378      9778.837    1739.503      1695.807      9781.592    1782.964
     1807.383      9859.311    1739.402      1836.452      9862.943    1780.133
     1945.405      9939.640    1739.752      1975.973      9944.204    1776.696
     2083.500     10019.788    1740.706      2116.924     10025.755    1776.527
     2222.324     10099.850    1742.719      2257.505     10107.356    1777.795
     2361.970     10179.892    1746.323      2399.093     10189.323    1782.363
     2501.541     10259.733    1750.987      2542.175     10271.933    1790.396
     2641.960     10339.673    1757.177      2684.895     10354.753    1798.870
     2781.527     10419.151    1762.013      2827.646     10437.889    1806.334
     2922.092     10498.904    1765.899      2969.401     10520.843    1810.309
     3063.191     10578.890    1767.789      3110.317     10603.483    1811.388
     3203.800     10658.632    1766.737      3248.326     10684.450    1807.877
     3343.832     10738.008    1763.991      3383.071     10763.018    1801.526
     3481.919     10815.991    1760.352      3516.302     10839.867    1795.038
     3620.328     10893.997    1759.640      3654.231     10919.423    1796.049
     3760.140     10973.033    1763.776      3796.042     11001.817    1805.376
     3900.971     11053.063    1773.344      3937.162     11083.734    1818.324
     4041.692     11133.262    1787.419      4080.493     11167.611    1837.817
     4185.103     11216.193    1811.406      4229.861     11257.088    1867.509
     4330.454     11301.308    1836.862      4379.028     11346.580    1895.435
     4467.410     11378.815    1848.618      4518.171     11426.617    1910.329
     4610.971     11462.658    1868.726      4660.123     11509.134    1929.719
     4757.965     11549.830    1895.339      4802.229     11591.741    1950.292
     4901.628     11633.877    1913.632      4943.371     11673.461    1962.672
     5042.077     11714.887    1921.508      5080.048     11750.995    1966.569
     5180.621     11794.077    1922.159      5211.992     11824.031    1963.091
     5321.174     11875.177    1923.732      5348.559     11901.458    1963.678
     5462.410     11956.927    1927.854      5486.816     11980.505    1966.769
     5603.257     12038.298    1927.628      5624.693     12059.176    1966.628
       79.448      8670.451    1730.260        79.603      8670.178    1764.179
      219.517      8751.491    1731.106       220.301      8751.226    1764.754
      359.512      8832.519    1733.336       361.149      8832.254    1768.025
      499.406      8913.532    1736.516       502.400      8913.280    1774.633
      639.151      8994.532    1739.606       643.858      8994.348    1778.948
      778.904      9075.514    1743.710       785.466      9075.446    1781.434
      918.396      9156.487    1746.462       927.191      9156.571    1782.441
     1057.653      9237.435    1747.703      1068.715      9237.718    1781.668
     1196.646      9318.350    1747.378      1208.864      9318.838    1778.109
     1335.265      9399.212    1745.572      1349.895      9400.001    1779.028
     1473.633      9480.009    1743.168      1492.381      9481.293    1783.980
     1611.669      9560.716    1740.467      1633.039      9562.512    1782.992
     1750.170      9641.388    1739.558      1775.344      9643.934    1782.964
     1888.976      9722.010    1739.474      1916.593      9725.344    1780.113
     2028.001      9802.563    1739.871      2056.913      9806.726    1776.696
     2167.163      9883.017    1740.859      2198.794      9888.463    1776.539
     2307.084      9963.483    1742.949      2340.523      9970.374    1777.853
     2447.406     10043.932    1746.580      2483.034     10052.695    1782.571
     2587.373     10124.190    1751.389      2626.468     10135.583    1790.668
     2727.837     10204.489    1757.531      2769.495     10218.729    1799.134
     2867.913     10284.548    1762.361      2913.325     10302.554    1806.576
     3009.027     10364.952    1766.185      3055.195     10385.907    1810.472
     3150.366     10445.489    1767.911      3195.340     10468.529    1811.399
     3291.088     10525.732    1766.722      3332.348     10549.284    1807.824
     3431.433     10605.748    1763.837      3467.113     10628.201    1801.346
     3570.181     10684.653    1760.267      3601.479     10706.164    1795.097
     3708.184     10762.845    1759.811      3739.690     10786.284    1796.498
     3846.736     10841.303    1764.219      3880.527     10868.229    1806.024
     3986.261     10920.547    1773.898      4019.890     10948.917    1818.838
     4125.697     10999.828    1788.130      4161.106     11031.070    1838.207
     4268.223     11082.075    1812.191      4307.512     11117.871    1867.112
     4411.376     11165.205    1837.073      4453.993     11204.805    1894.595
     4547.567     11242.025    1848.687      4592.968     11284.623    1909.799
     4690.622     11325.390    1868.769      4734.939     11367.098    1929.072
     4836.537     11411.519    1895.170      4876.631     11449.255    1949.425
     4979.449     11494.840    1913.464      5019.133     11532.201    1962.401
     5120.499     11576.414    1921.478      5157.381     11611.200    1966.597
     5260.011     11656.535    1922.170      5290.827     11685.692    1963.304
     5401.308     11738.341    1923.774      5428.334     11764.030    1963.869
     5542.833     11820.367    1927.873      5567.168     11843.636    1966.909
     5683.302     11901.380    1927.645      5705.065     11922.348    1966.766
      158.891      8532.851    1728.708       159.088      8532.507    1763.625
      298.913      8613.885    1729.379       299.797      8613.586    1762.074
      438.790      8694.914    1730.370       440.631      8694.631    1764.105
      578.663      8775.911    1734.000       582.168      8775.646    1772.955
      718.351      8856.900    1736.926       723.720      8856.729    1776.538
      858.274      8937.875    1742.277       865.498      8937.839    1778.994
      997.425      9018.840    1744.000      1006.899      9018.969    1778.360
     1136.858      9099.790    1746.341      1149.346      9100.139    1780.758
     1275.564      9180.695    1745.901      1288.060      9181.203    1774.586
     1414.340      9261.568    1745.136      1429.391      9262.365    1776.830
     1552.249      9342.346    1742.262      1572.875      9343.701    1783.793
     1689.502      9423.006    1738.260      1712.593      9424.837    1781.094
     1828.639      9503.745    1738.253      1854.316      9506.169    1779.898
     1967.321      9584.374    1737.425      1994.999      9587.471    1776.173
     2107.249      9665.069    1738.340      2136.399      9668.945    1774.177
     2245.528      9745.429    1737.678      2277.544      9750.517    1772.715
     2385.981      9826.006    1739.876      2419.859      9832.468    1773.786
     2526.408      9906.500    1743.093      2561.515      9914.532    1776.558
     2665.402      9986.523    1746.209      2706.718      9997.784    1785.086
     2806.598     10067.027    1751.959      2848.847     10080.618    1791.397
     2947.254     10147.304    1756.176      2996.040     10165.629    1800.669
     3089.325     10228.117    1760.163      3136.249     10248.438    1803.039
     3231.124     10308.904    1762.318      3277.459     10331.726    1806.026
     3370.808     10388.623    1760.807      3412.168     10411.499    1802.034
     3511.237     10468.671    1758.869      3546.202     10490.146    1795.839
     3649.318     10547.128    1755.029      3679.068     10567.217    1787.972
     3785.925     10624.265    1753.399      3816.622     10646.816    1788.645
     3923.575     10701.902    1757.719      3958.094     10729.177    1799.611
     4065.689     10783.186    1771.986      4097.265     10809.682    1813.829
     4201.285     10859.092    1782.521      4236.166     10889.768    1832.058
     4345.432     10942.709    1809.720      4383.021     10976.865    1863.613
     4494.588     11031.371    1844.577      4533.673     11067.563    1898.996
     4624.138     11102.055    1848.198      4667.519     11142.542    1907.674
     4766.925     11185.171    1868.429      4809.870     11225.271    1926.490
     4917.859     11275.946    1900.799      4960.164     11315.335    1955.114
     5059.657     11358.200    1916.857      5097.498     11393.346    1960.944
     5198.313     11437.543    1921.719      5236.053     11472.571    1965.075
     5335.953     11515.945    1919.583      5366.895     11544.689    1958.067
     5477.021     11597.520    1920.089      5504.613     11623.221    1957.926
     5619.283     11680.204    1924.573      5644.742     11704.022    1961.747
     5759.937     11761.377    1924.351      5782.838     11782.938    1961.557
      238.347      8395.229    1728.984       238.588      8394.807    1764.198
      378.321      8476.278    1728.027       379.357      8475.919    1761.217
      518.164      8557.298    1729.250       520.334      8556.968    1763.695
      658.113      8638.278    1733.664       661.589      8638.030    1767.065
      797.434      8719.275    1733.953       803.372      8719.112    1771.944
      936.668      8800.240    1736.632       944.617      8800.229    1771.659
     1075.843      8881.188    1739.804      1086.218      8881.354    1772.631
     1215.315      8962.128    1743.081      1227.830      8962.492    1773.719
     1354.667      9043.054    1745.005      1369.101      9043.635    1774.855
     1494.515      9123.987    1747.150      1512.355      9124.898    1780.873
     1634.590      9204.926    1748.815      1657.411      9206.344    1789.630
     1772.887      9285.728    1746.311      1798.245      9287.603    1788.329
     1909.302      9366.310    1741.219      1934.479      9368.505    1778.062
     2047.372      9446.935    1738.921      2075.625      9449.832    1775.181
     2187.839      9527.740    1739.710      2217.017      9531.283    1773.241
     2327.119      9608.334    1739.364      2356.179      9612.550    1769.253
     2469.312      9689.318    1742.283      2502.471      9695.106    1772.940
     2606.562      9769.326    1741.698      2646.518      9777.728    1776.058
     2747.945      9850.054    1745.588      2792.978      9861.402    1783.253
     2886.460      9929.929    1747.262      2933.427      9943.994    1786.163
     3025.761     10009.777    1748.835      3071.404     10025.872    1786.524
     3165.442     10089.530    1749.857      3212.800     10108.971    1790.047
     3311.966     10172.302    1756.312      3360.918     10195.407    1800.317
     3455.459     10254.127    1759.865      3500.517     10278.282    1803.453
     3593.599     10333.080    1757.641      3630.991     10355.583    1795.928
     3734.493     10413.566    1758.509      3768.836     10436.495    1794.815
     3869.396     10489.777    1756.249      3906.041     10516.581    1796.094
     4006.892     10567.479    1761.520      4045.036     10597.649    1805.655
     4146.175     10646.546    1774.012      4176.222     10671.900    1812.421
     4289.455     10729.288    1797.300      4323.966     10759.851    1845.102
     4434.518     10814.073    1827.213      4468.787     10845.372    1875.922
     4572.843     10892.911    1847.820      4609.256     10926.692    1898.634
     4705.047     10966.103    1856.283      4745.561     11003.850    1911.293
     4855.194     11056.083    1886.572      4894.686     11092.772    1937.923
     5005.045     11145.751    1915.047      5043.138     11180.938    1959.767
     5137.260     11219.146    1918.119      5173.119     11252.088    1956.256
     5273.364     11296.182    1919.729      5310.516     11330.179    1958.656
     5415.739     11378.968    1922.617      5444.901     11405.600    1955.641
     5555.962     11459.778    1921.845      5583.385     11484.823    1956.142
     5697.133     11541.441    1924.296      5724.249     11566.261    1960.134
     5837.999     11622.810    1924.144      5862.366     11645.217    1959.952
      317.828      8257.564    1731.576       318.079      8257.124    1762.657
      457.920      8338.603    1731.739       459.016      8338.219    1762.284
      597.778      8419.644    1731.130       600.232      8419.275    1764.976
      737.145      8500.675    1729.522       741.247      8500.395    1763.505
      876.178      8581.657    1729.838       882.696      8581.498    1765.491
     1015.396      8662.604    1733.552      1023.986      8662.612    1765.966
     1154.841      8743.546    1737.995      1165.828      8743.736    1768.200
     1293.013      8824.447    1738.666      1307.889      8824.883    1770.988
     1432.103      8905.351    1741.105      1449.916      8906.051    1774.086
     1572.219      8986.288    1744.643      1592.707      8987.284    1778.835
     1714.481      9067.346    1750.177      1738.626      9068.750    1787.562
     1854.119      9148.262    1749.848      1881.228      9150.113    1788.383
     1993.590      9229.147    1748.735      2023.991      9231.568    1787.280
     2129.118      9309.640    1742.814      2163.982      9312.882    1782.315
     2266.307      9390.149    1739.445      2302.331      9394.096    1776.680
     2408.234      9471.114    1741.000      2440.335      9475.308    1770.847
     2547.346      9551.666    1739.852      2581.195      9556.992    1767.738
     2686.907      9632.165    1740.083      2732.354      9640.810    1774.264
     2826.826      9712.616    1741.202      2881.747      9725.205    1780.785
     2961.945      9791.619    1738.909      3013.476      9805.770    1775.699
     3099.351      9870.706    1737.675      3148.654      9886.812    1773.492
     3239.596      9950.367    1738.117      3291.247      9970.259    1777.790
     3384.027     10031.692    1742.363      3439.033     10056.412    1788.454
     3532.993     10115.750    1751.585      3583.003     10141.676    1797.182
     3673.160     10195.739    1752.986      3720.698     10223.832    1798.402
     3816.463     10277.761    1758.117      3859.317     10306.230    1800.252
     3952.070     10354.592    1758.322      3996.169     10387.022    1802.645
     4089.675     10432.482    1765.028      4127.497     10462.835    1805.931
     4226.084     10509.170    1776.166      4254.473     10533.667    1810.424
     4379.841     10601.524    1815.047      4416.700     10634.980    1863.046
     4522.254     10684.312    1843.058      4556.187     10715.877    1889.908
     4647.930     10751.416    1847.802      4685.413     10786.580    1899.548
     4788.427     10832.412    1869.818      4825.110     10866.706    1918.134
     4945.260     10928.606    1907.685      4979.066     10959.950    1948.667
     5083.639     11007.592    1919.426      5116.556     11037.833    1954.532
     5209.651     11075.374    1915.213      5245.069     11107.632    1949.280
     5347.345     11153.941    1917.639      5383.706     11186.816    1952.228
     5492.064     11238.854    1921.968      5524.009     11267.578    1955.071
     5632.338     11319.742    1920.661      5665.525     11349.486    1958.909
     5775.352     11403.066    1924.661      5806.140     11430.643    1961.971
     5916.378     11484.585    1924.423      5944.108     11509.481    1961.851
      397.287      8119.936    1730.160       397.551      8119.475    1759.134
      537.411      8200.961    1731.125       538.631      8200.536    1761.319
      677.350      8281.997    1731.292       679.935      8281.614    1762.664
      816.712      8363.034    1729.711       821.663      8362.710    1765.415
      955.342      8444.030    1728.405       962.905      8443.860    1763.927
     1094.508      8524.970    1732.220      1104.934      8524.995    1766.022
     1232.799      8605.889    1733.872      1245.681      8606.121    1764.907
     1370.974      8686.778    1735.543      1389.388      8687.312    1771.379
     1509.558      8767.659    1737.869      1533.940      8768.584    1778.430
     1649.743      8848.592    1742.255      1675.904      8849.795    1780.609
     1789.452      8929.496    1744.360      1820.073      8931.152    1784.916
     1932.585      9010.602    1748.899      1966.525      9012.728    1789.495
     2073.540      9091.598    1749.422      2105.153      9093.880    1783.387
     2211.357      9172.339    1746.188      2247.734      9175.379    1781.596
     2349.694      9253.059    1743.434      2388.321      9256.831    1778.036
     2486.943      9333.568    1739.539      2524.644      9337.930    1770.039
     2625.125      9414.034    1736.427      2664.902      9419.567    1764.896
     2766.118      9494.791    1736.250      2819.117      9503.718    1770.410
     2898.881      9573.832    1731.653      2955.651      9585.408    1766.288
     3030.204      9651.755    1726.239      3088.564      9666.181    1761.748
     3171.004      9731.403    1726.051      3233.757      9750.115    1765.489
     3313.354      9811.372    1726.866      3371.235      9832.039    1766.167
     3457.396      9892.006    1730.008      3521.646      9919.263    1779.239
     3605.065      9974.708    1738.276      3660.154     10002.202    1784.442
     3748.181     10055.736    1743.189      3802.725     10087.407    1790.436
     3893.233     10138.448    1751.187      3945.673     10173.335    1797.849
     4035.492     10219.902    1759.310      4083.383     10255.757    1802.994
     4175.505     10299.915    1770.151      4216.834     10334.179    1811.598
     4311.860     10376.764    1783.869      4348.320     10409.598    1825.796
     4449.644     10454.854    1805.372      4508.086     10510.414    1876.810
     4599.025     10544.475    1842.094      4639.720     10583.915    1896.595
     4730.762     10617.078    1857.045      4772.877     10657.761    1914.284
     4879.563     10706.063    1891.878      4917.885     10742.378    1940.431
     5027.828     10794.215    1917.636      5065.650     10829.378    1960.064
     5153.865     10861.800    1915.138      5193.307     10897.925    1953.539
     5283.310     10932.841    1914.085      5325.057     10970.607    1950.713
     5424.562     11014.683    1918.705      5467.269     11052.906    1956.233
     5570.413     11100.596    1923.363      5609.099     11134.906    1960.931
     5710.409     11181.278    1921.354      5747.122     11213.608    1961.373
     5854.702     11265.713    1926.167      5887.556     11294.529    1963.516
     5995.865     11347.367    1925.896      6025.464     11373.314    1963.435
      476.706      7982.380    1724.176       476.972      7981.914    1751.054
      616.647      8063.407    1724.170       617.881      8062.983    1751.964
      756.588      8144.396    1727.017       759.302      8144.006    1756.639
      896.140      8225.403    1728.326       901.408      8225.073    1762.133
     1034.961      8306.392    1728.619      1043.247      8306.223    1762.625
     1174.473      8387.341    1733.165      1186.039      8387.382    1765.876
     1311.637      8468.249    1732.247      1325.589      8468.505    1762.215
     1448.988      8549.116    1732.961      1469.217      8549.693    1768.753
     1587.623      8629.998    1736.005      1614.531      8630.976    1776.560
     1727.692      8710.927    1740.497      1759.505      8712.302    1781.702
     1863.727      8791.651    1738.615      1901.875      8793.556    1781.987
     2006.376      8872.688    1742.673      2047.371      8875.027    1784.229
     2149.992      8953.813    1745.946      2188.762      8956.333    1781.368
     2292.703      9034.920    1746.964      2335.219      9038.080    1782.271
     2433.401      9115.903    1745.038      2477.589      9119.695    1778.657
     2573.995      9196.884    1741.880      2617.577      9201.269    1771.989
     2707.317      9277.000    1733.727      2757.488      9283.046    1764.764
     2843.664      9357.195    1729.395      2905.042      9366.165    1762.989
     2975.491      9436.272    1724.192      3043.397      9448.301    1758.836
     3106.315      9514.280    1718.456      3182.057      9530.791    1757.950
     3247.387      9593.857    1717.799      3317.479      9612.637    1755.819
     3386.726      9672.619    1716.197      3457.555      9695.758    1758.111
     3530.224      9752.472    1717.893      3593.759      9777.637    1761.463
     3670.950      9831.045    1720.699      3734.322      9861.264    1768.091
     3818.135      9912.936    1729.081      3876.233      9946.009    1774.104
     3964.607      9995.458    1738.781      4020.346     10032.765    1783.283
     4106.226     10075.469    1747.232      4162.719     10119.071    1793.854
     4253.258     10160.601    1764.615      4303.107     10204.143    1811.213
     4397.380     10244.536    1787.546      4437.573     10283.178    1832.729
     4522.591     10310.197    1795.554      4597.825     10386.759    1887.471
     4686.116     10415.169    1851.044      4725.438     10455.840    1902.044
     4825.661     10495.211    1877.613      4867.848     10538.051    1933.283
     4974.377     10583.844    1912.356      5011.757     10620.255    1957.837
     5105.995     10655.823    1919.129      5143.824     10691.329    1959.016
     5230.760     10722.148    1916.086      5279.255     10766.541    1959.843
     5363.676     10796.399    1917.646      5414.879     10842.448    1959.453
     5507.649     10880.659    1923.879      5553.566     10921.375    1962.188
     5647.706     10961.428    1923.281      5685.719     10994.711    1958.849
     5789.837     11044.014    1923.048      5825.468     11074.871    1960.850
     5935.235     11129.369    1928.712      5968.066     11157.578    1964.515
     6076.496     11211.117    1928.406      6106.009     11236.377    1964.388
      556.132      7844.809    1719.022       556.433      7844.284    1747.853
      695.955      7925.823    1719.222       697.271      7925.384    1746.879
      835.600      8006.825    1720.710       838.539      8006.417    1750.128
      974.801      8087.817    1722.193       980.910      8087.453    1757.737
     1114.074      8168.765    1726.323      1123.363      8168.593    1760.271
     1254.719      8249.714    1734.085      1266.719      8249.768    1764.332
     1392.181      8330.643    1733.874      1408.586      8330.946    1765.940
     1529.276      8411.521    1734.224      1551.986      8412.151    1771.395
     1666.465      8492.371    1735.144      1696.479      8493.408    1776.642
     1804.077      8573.210    1736.452      1838.300      8574.588    1776.259
     1941.060      8653.993    1736.198      1983.959      8655.953    1779.100
     2081.162      8734.891    1737.744      2128.159      8737.308    1779.330
     2222.171      8815.827    1738.784      2269.136      8818.543    1776.303
     2367.000      8897.009    1740.935      2406.300      8899.571    1769.273
     2513.686      8978.396    1741.522      2558.119      8981.686    1770.484
     2659.848      9059.874    1739.494      2707.433      9063.943    1767.908
     2791.485      9140.074    1728.825      2848.680      9145.881    1760.063
     2925.499      9220.224    1722.245      2997.841      9229.175    1756.531
     3056.634      9299.538    1716.727      3143.016      9312.635    1754.768
     3191.967      9378.788    1713.469      3266.021      9392.811    1747.907
     3326.756      9457.229    1710.502      3404.506      9475.636    1747.366
     3464.823      9535.698    1708.790      3549.764      9560.680    1752.442
     3605.610      9614.366    1708.817      3680.709      9641.708    1753.856
     3742.551      9690.775    1709.307      3813.588      9722.678    1755.993
     3886.592      9769.673    1714.820      3952.824      9806.280    1761.016
     4034.418      9851.342    1725.252      4093.231      9890.881    1768.153
     4172.285      9926.665    1730.875      4239.743      9980.751    1782.624
     4320.908     10011.452    1747.522      4375.967     10062.947    1796.981
     4456.824     10085.715    1757.999      4503.151     10134.325    1810.415
     4588.388     10155.664    1770.622      4686.223     10265.847    1896.795
     4713.012     10219.275    1777.992      4823.885     10345.432    1920.303
     4923.114     10378.547    1895.475      4968.467     10428.000    1954.614
     5063.556     10457.335    1920.147      5100.892     10495.280    1964.929
     5183.625     10517.005    1915.959      5225.349     10556.882    1958.574
     5307.737     10582.570    1914.030      5357.201     10627.951    1956.395
     5446.634     10662.279    1920.876      5498.098     10708.271    1960.961
     5587.364     10743.630    1924.865      5630.698     10781.649    1959.995
     5726.799     10823.878    1924.271      5765.166     10857.000    1959.479
     5872.845     10909.800    1928.163      5907.739     10939.490    1964.768
     6017.995     10994.855    1933.389      6050.191     11021.939    1967.561
     6159.351     11076.669    1933.105      6188.143     11100.717    1967.487
      635.595      7707.176    1717.411       635.920      7706.607    1748.251
      775.262      7788.235    1714.818       776.794      7787.742    1745.296
      914.754      7869.228    1716.551       917.872      7868.816    1745.482
     1053.986      7950.196    1719.516      1059.221      7949.904    1747.100
     1193.075      8031.139    1723.601      1202.017      8030.991    1753.102
     1332.172      8112.074    1728.017      1345.124      8112.145    1757.803
     1471.037      8193.007    1731.790      1489.135      8193.341    1764.556
     1608.733      8273.906    1733.567      1632.554      8274.543    1770.128
     1746.630      8354.794    1735.307      1779.150      8355.850    1777.096
     1882.670      8435.602    1734.255      1920.709      8437.005    1774.843
     2019.016      8516.386    1733.328      2068.943      8518.437    1778.805
     2156.249      8597.169    1732.593      2206.018      8599.433    1772.655
     2295.103      8677.994    1732.139      2347.827      8680.649    1770.549
     2438.882      8759.063    1732.789      2487.986      8761.812    1764.690
     2587.959      8840.495    1732.548      2647.855      8844.248    1767.162
     2733.999      8921.848    1727.788      2795.782      8926.228    1760.699
     2875.230      9002.943    1720.579      2940.562      9008.292    1752.967
     3004.503      9082.907    1710.546      3085.646      9090.922    1745.795
     3135.090      9162.316    1703.992      3227.713      9174.117    1744.869
     3279.425      9243.187    1706.214      3363.771      9256.902    1743.138
     3413.754      9322.158    1704.856      3497.182      9339.348    1740.577
     3541.404      9398.510    1700.400      3630.742      9421.764    1741.212
     3681.070      9476.699    1701.388      3757.987      9501.931    1741.726
     3820.313      9553.907    1703.620      3907.461      9589.831    1754.236
     3962.543      9631.202    1707.115      4039.845      9671.812    1756.479
     4104.931      9707.807    1712.823      4166.424      9748.978    1755.087
     4247.610      9784.620    1720.822      4309.186      9835.948    1766.630
     4393.935      9865.789    1733.017      4448.189      9920.515    1781.792
     4532.723      9940.907    1741.997      4576.286      9992.133    1793.581
     4666.837     10009.335    1750.677      4702.457     10058.007    1803.652
     4790.936     10071.014    1759.303      4905.174     10226.208    1919.064
     5001.804     10244.356    1885.363      5048.233     10300.439    1948.163
     5139.276     10317.755    1907.454      5183.007     10364.411    1960.621
     5266.075     10382.867    1912.774      5306.588     10422.376    1953.710
     5394.966     10452.412    1916.523      5435.145     10489.343    1949.952
     5529.350     10527.919    1920.882      5572.622     10566.240    1953.782
     5665.575     10605.330    1922.802      5711.445     10644.994    1959.567
     5814.655     10693.807    1932.161      5852.352     10725.776    1966.285
     5957.520     10776.876    1934.794      5991.202     10804.954    1969.402
     6102.133     10861.354    1938.723      6133.633     10887.238    1971.448