NOECHO

-- =============================================================================
-- 
-- Exported from Reek_base_sim
-- 
-- Exported by user asny from RMS11 at 2020-02-19 17:22:20
-- 
-- =============================================================================

MAPUNITS
'METRES  ' /

MAPAXES
456514.861 5939175.013
456514.861 5927115.548
467217.946 5927115.548 /

GRIDUNIT
'METRES  ' '        ' /

SPECGRID
  40  64  14   1  F  /

GDORIENT
INC INC INC DOWN RIGHT /

COORD
        0.000      8808.165    1736.315         0.220      8807.714    1775.434
      139.989      8889.204    1736.386       140.973      8888.777    1772.920
      279.882      8970.227    1737.597       281.821      8969.824    1772.351
      419.706      9051.227    1741.384       423.193      9050.839    1777.950
      559.481      9132.211    1745.515       564.841      9131.900    1782.227
      698.895      9213.195    1747.017       706.384      9213.006    1781.468
      838.302      9294.159    1748.397       848.389      9294.127    1780.982
      978.053      9375.112    1749.818       990.644      9375.286    1780.696
     1117.161      9456.040    1748.192      1131.730      9456.453    1777.070
     1254.951      9536.886    1743.882      1273.669      9537.674    1775.677
     1393.050      9617.681    1740.809      1416.985      9619.025    1777.297
     1531.094      9698.405    1738.928      1558.200      9700.333    1776.403
     1669.298      9779.063    1738.621      1699.519      9781.710    1776.066
     1807.243      9859.600    1737.818      1838.887      9862.965    1773.735
     1944.758      9939.945    1736.599      1977.133      9944.108    1771.262
     2082.823     10020.170    1736.928      2118.140     10025.661    1773.237
     2221.630     10100.304    1739.154      2262.038     10107.897    1779.653
     2361.555     10180.462    1743.513      2405.537     10190.419    1787.098
     2502.657     10260.780    1750.278      2547.529     10272.925    1794.277
     2644.968     10341.423    1759.118      2688.630     10355.416    1801.231
     2785.668     10421.535    1765.386      2830.532     10438.366    1808.074
     2924.353     10500.700    1767.121      2972.091     10521.371    1810.282
     3063.256     10579.689    1766.417      3113.104     10604.213    1810.306
     3204.129     10659.539    1765.669      3250.942     10685.314    1807.328
     3344.454     10739.101    1763.540      3385.469     10764.036    1801.272
     3483.695     10817.939    1761.007      3518.217     10840.872    1794.605
     3622.338     10896.257    1760.455      3653.645     10918.770    1793.241
     3762.274     10975.481    1764.168      3794.485     11000.314    1801.178
     3903.531     11055.900    1772.593      3935.350     11081.915    1812.916
     4043.830     11135.776    1785.775      4079.346     11166.209    1832.809
     4188.922     11220.126    1811.786      4229.971     11256.549    1863.644
     4334.425     11305.286    1837.889      4378.377     11345.187    1890.301
     4469.923     11381.538    1848.971      4516.653     11424.515    1904.936
     4613.020     11464.867    1869.413      4659.242     11507.633    1926.665
     4759.986     11551.872    1896.654      4802.352     11591.188    1949.955
     4902.449     11634.744    1914.623      4942.479     11671.987    1964.860
     5041.212     11714.181    1920.465      5079.749     11750.161    1968.722
     5180.763     11794.347    1922.126      5213.771     11825.305    1966.403
     5321.639     11875.753    1924.094      5349.694     11902.211    1965.991
     5463.047     11957.665    1928.275      5487.421     11980.803    1968.526
     5603.850     12039.003    1928.040      5625.235     12059.464    1968.414
       79.451      8670.524    1736.331        79.708      8670.074    1775.424
      219.475      8751.561    1736.411       220.486      8751.138    1772.943
      359.409      8832.583    1737.643       361.403      8832.181    1772.405
      499.317      8913.580    1741.441       502.883      8913.198    1777.978
      639.212      8994.564    1745.548       644.651      8994.268    1782.233
      778.764      9075.552    1747.061       786.271      9075.383    1781.479
      918.342      9156.525    1748.450       928.446      9156.514    1781.005
     1058.228      9237.491    1749.841      1070.821      9237.681    1780.689
     1197.567      9318.437    1748.197      1211.899      9318.852    1777.062
     1335.662      9399.311    1743.919      1353.823      9400.075    1775.678
     1473.864      9480.135    1740.857      1497.022      9481.418    1777.296
     1612.091      9560.901    1739.003      1638.066      9562.708    1776.389
     1750.686      9641.631    1738.665      1779.375      9644.075    1776.065
     1889.299      9722.292    1737.869      1919.176      9725.368    1773.706
     2027.682      9802.828    1736.707      2058.274      9806.629    1771.253
     2166.552      9883.297    1737.085      2200.233      9888.353    1773.293
     2306.075      9963.729    1739.410      2344.913      9970.782    1779.771
     2446.526     10044.218    1743.846      2488.845     10053.498    1787.237
     2587.941     10124.876    1750.746      2631.121     10136.228    1794.436
     2730.123     10205.772    1759.539      2772.820     10219.101    1801.423
     2871.093     10286.308    1765.640      2915.708     10302.662    1808.258
     3010.424     10366.114    1767.239      3056.738     10385.772    1810.353
     3150.012     10445.834    1766.535      3196.839     10468.488    1810.349
     3291.161     10526.250    1765.722      3334.206     10549.620    1807.274
     3431.955     10606.516    1763.484      3469.750     10629.229    1801.114
     3571.850     10686.233    1760.976      3603.844     10707.286    1794.547
     3710.088     10764.738    1760.614      3739.454     10785.692    1793.612
     3848.668     10843.348    1764.578      3878.946     10866.546    1801.785
     3988.327     10922.785    1773.029      4017.803     10946.762    1813.384
     4127.523     11001.930    1786.482      4159.691     11029.383    1833.135
     4271.269     11085.211    1812.451      4307.224     11116.998    1863.095
     4414.569     11168.424    1837.964      4453.257     11203.416    1889.453
     4549.656     11244.331    1849.001      4591.627     11282.765    1904.440
     4692.347     11327.283    1869.392      4734.406     11365.992    1925.936
     4838.569     11413.570    1896.478      4878.298     11450.194    1949.216
     4980.581     11496.009    1914.479      5019.836     11532.249    1964.597
     5119.578     11575.673    1920.439      5157.763     11611.015    1968.743
     5259.996     11656.650    1922.137      5292.675     11687.006    1966.565
     5401.619     11738.752    1924.133      5429.297     11764.588    1966.196
     5543.232     11820.854    1928.298      5567.488     11843.628    1968.697
     5683.683     11901.865    1928.061      5705.326     11922.335    1968.576
      158.901      8532.912    1735.536       159.222      8532.354    1776.519
      298.887      8613.954    1734.925       300.026      8613.474    1771.214
      438.674      8694.991    1734.682       440.856      8694.559    1768.024
      578.509      8775.971    1738.424       582.555      8775.561    1774.926
      718.602      8856.930    1743.941       724.453      8856.641    1778.967
      857.908      8937.919    1744.646       866.054      8937.770    1778.082
      997.261      9018.884    1745.820      1007.424      9018.904    1775.294
     1137.712      9099.853    1748.863      1152.026      9100.098    1780.620
     1277.060      9180.801    1747.585      1291.799      9181.240    1774.769
     1414.625      9261.659    1742.853      1433.577      9262.446    1773.438
     1552.146      9342.452    1739.040      1577.255      9343.792    1775.790
     1689.727      9423.180    1736.475      1718.085      9425.051    1774.990
     1829.397      9503.995    1737.417      1859.209      9506.374    1774.721
     1967.908      9584.668    1736.173      1997.522      9587.502    1770.662
     2106.231      9665.226    1734.540      2135.712      9668.614    1766.922
     2245.064      9745.717    1734.335      2280.285      9750.604    1770.855
     2384.280      9826.117    1735.939      2425.201      9833.005    1776.369
     2524.446      9906.544    1739.915      2569.191      9915.682    1782.786
     2665.008      9986.953    1745.440      2711.430      9998.389    1788.960
     2808.764     10068.207    1754.536      2851.954     10080.926    1793.727
     2951.323     10149.271    1760.864      2997.350     10165.305    1801.701
     3089.798     10228.809    1761.102      3134.825     10247.114    1801.406
     3228.774     10308.246    1759.709      3277.613     10331.060    1805.217
     3371.250     10389.282    1760.494      3413.092     10411.384    1801.530
     3511.062     10468.967    1757.636      3550.158     10491.978    1796.578
     3651.456     10548.951    1755.792      3682.372     10568.988    1787.670
     3787.780     10626.102    1753.991      3815.177     10645.437    1784.207
     3925.414     10703.890    1757.995      3956.702     10727.669    1795.844
     4067.160     10784.888    1770.729      4093.947     10806.550    1807.113
     4202.036     10860.355    1779.655      4235.165     10888.506    1827.865
     4348.599     10945.978    1810.933      4384.192     10977.320    1862.214
     4497.035     11033.783    1845.055      4532.987     11066.145    1894.418
     4625.864     11104.068    1848.445      4665.721     11140.328    1902.135
     4768.122     11186.618    1868.603      4809.869     11224.695    1924.399
     4920.185     11278.182    1902.728      4960.677     11315.069    1954.200
     5062.592     11360.956    1920.166      5101.335     11396.206    1966.229
     5196.377     11435.900    1919.738      5235.750     11471.723    1966.158
     5335.740     11515.922    1919.510      5369.424     11546.612    1962.309
     5476.952     11597.625    1920.038      5504.426     11622.729    1958.908
     5619.305     11680.373    1924.619      5643.880     11702.924    1962.135
     5759.980     11761.580    1924.369      5782.038     11781.943    1961.959
      238.362      8395.282    1735.195       238.734      8394.633    1776.118
      378.278      8476.359    1732.531       379.511      8475.828    1767.168
      518.022      8557.384    1732.944       520.476      8556.897    1765.725
      657.875      8638.348    1737.029       661.996      8637.940    1769.493
      797.600      8719.317    1740.265       803.959      8719.022    1773.595
      936.546      8800.294    1740.600       945.141      8800.161    1771.454
     1075.500      8881.241    1741.812      1086.909      8881.288    1771.005
     1215.965      8962.195    1745.604      1229.776      8962.447    1772.905
     1356.447      9043.167    1747.224      1372.812      9043.653    1774.200
     1495.018      9124.069    1744.740      1516.685      9124.942    1776.007
     1633.962      9204.958    1743.008      1658.007      9206.179    1774.713
     1771.881      9285.755    1740.743      1802.600      9287.653    1778.912
     1908.707      9366.414    1737.979      1938.245      9368.597    1772.394
     2048.198      9447.203    1737.714      2079.457      9449.951    1772.166
     2187.191      9527.888    1736.517      2217.126      9531.036    1767.725
     2326.513      9608.523    1736.134      2358.735      9612.610    1767.459
     2466.141      9689.097    1737.365      2506.280      9695.289    1773.779
     2606.258      9769.645    1740.744      2656.351      9779.069    1783.602
     2747.340      9850.310    1745.593      2793.263      9860.803    1783.492
     2889.015      9931.104    1750.870      2932.528      9943.085    1785.788
     3027.935     10011.001    1752.509      3071.818     10025.431    1787.748
     3166.582     10090.490    1752.047      3212.648     10108.352    1790.791
     3311.295     10172.355    1755.662      3363.079     10195.684    1802.378
     3453.469     10253.361    1757.067      3495.882     10275.212    1797.812
     3592.665     10332.814    1754.918      3634.587     10357.121    1795.058
     3733.378     10413.076    1754.899      3768.720     10435.818    1789.250
     3868.583     10489.544    1753.685      3904.906     10515.134    1791.428
     4007.488     10568.337    1760.698      4041.619     10594.331    1800.089
     4146.722     10647.402    1772.433      4174.661     10670.139    1808.780
     4291.425     10731.278    1797.388      4324.578     10759.655    1843.976
     4436.642     10816.110    1827.931      4468.260     10844.075    1872.825
     4572.716     10892.998    1845.636      4603.673     10920.886    1888.229
     4705.597     10966.984    1855.477      4738.770     10997.080    1899.743
     4856.651     11057.535    1887.278      4890.890     11088.574    1931.264
     5006.739     11147.205    1916.437      5042.898     11179.855    1958.726
     5136.492     11218.543    1917.403      5175.592     11253.700    1959.603
     5272.333     11295.428    1918.984      5311.118     11330.193    1960.729
     5416.276     11379.586    1923.678      5446.064     11406.247    1958.624
     5556.278     11460.213    1922.630      5580.978     11482.323    1954.945
     5697.280     11541.730    1924.822      5721.740     11563.671    1959.036
     5838.194     11623.157    1924.675      5860.076     11642.868    1958.826
      317.829      8257.642    1734.499       318.185      8257.022    1768.623
      457.929      8338.649    1736.205       459.254      8338.070    1768.936
      597.894      8419.671    1736.957       600.422      8419.171    1766.415
      737.098      8500.737    1734.375       741.555      8500.305    1764.878
      876.085      8581.725    1734.737       883.799      8581.385    1769.810
     1015.551      8662.664    1738.280      1025.062      8662.534    1767.974
     1154.858      8743.603    1740.896      1167.901      8743.673    1770.289
     1292.632      8824.508    1740.101      1308.463      8824.804    1767.939
     1433.127      8905.454    1742.988      1456.183      8906.126    1776.705
     1572.609      8986.372    1742.824      1598.428      8987.368    1775.657
     1713.131      9067.328    1743.408      1739.958      9068.607    1774.593
     1853.603      9148.285    1744.236      1883.796      9150.013    1777.554
     1991.756      9229.087    1742.990      2021.994      9231.134    1774.835
     2127.468      9309.640    1738.838      2159.262      9312.179    1771.030
     2266.229      9390.334    1737.368      2298.180      9393.370    1767.996
     2406.069      9471.060    1736.864      2441.512      9475.114    1768.136
     2545.890      9551.708    1737.230      2587.943      9557.569    1771.062
     2685.906      9632.293    1739.312      2734.615      9640.611    1775.453
     2823.080      9712.177    1739.926      2881.211      9724.323    1781.001
     2961.102      9791.881    1740.842      3014.495      9805.460    1777.875
     3100.133      9871.486    1740.880      3151.084      9887.139    1777.366
     3240.305      9951.147    1740.282      3285.220      9967.637    1775.188
     3382.894     10031.614    1741.302      3429.943     10051.985    1781.294
     3530.278     10114.623    1747.535      3577.515     10138.368    1789.764
     3672.073     10195.317    1749.441      3720.731     10223.242    1792.573
     3812.786     10275.493    1751.747      3859.088     10305.324    1793.235
     3949.849     10353.177    1754.564      3988.549     10380.698    1791.757
     4088.571     10431.842    1763.253      4124.970     10460.031    1802.516
     4226.077     10509.454    1775.364      4255.038     10533.611    1810.423
     4378.908     10600.590    1812.640      4420.377     10637.076    1866.469
     4522.800     10684.648    1842.711      4558.251     10716.611    1891.198
     4649.104     10752.753    1848.632      4684.119     10784.637    1896.051
     4790.325     10834.385    1871.393      4824.101     10865.099    1914.802
     4946.614     10929.670    1908.342      4979.646     10959.524    1947.564
     5086.923     11010.433    1922.630      5125.518     11045.063    1963.334
     5210.638     11076.444    1916.586      5249.067     11110.678    1953.887
     5347.202     11154.053    1917.977      5386.037     11188.425    1956.191
     5492.693     11239.568    1923.156      5525.550     11268.506    1959.150
     5631.994     11319.615    1920.734      5659.972     11344.183    1955.167
     5775.096     11402.989    1924.989      5801.748     11426.373    1959.746
     5916.219     11484.608    1924.743      5940.102     11505.603    1959.530
      397.276      8120.036    1730.961       397.632      8119.414    1761.172
      537.535      8200.954    1737.074       538.917      8200.351    1767.135
      677.597      8281.990    1737.335       680.100      8281.501    1762.974
      817.051      8363.054    1735.880       821.497      8362.635    1762.501
      955.445      8444.091    1733.305       963.261      8443.763    1764.353
     1094.521      8525.031    1735.770      1105.577      8524.899    1766.090
     1233.440      8605.961    1738.096      1247.520      8606.050    1766.500
     1371.199      8686.859    1738.321      1390.325      8687.219    1768.761
     1509.227      8767.730    1738.549      1538.160      8768.551    1776.532
     1648.384      8848.617    1739.041      1680.605      8849.795    1775.285
     1787.788      8929.500    1738.976      1822.078      8931.023    1773.984
     1930.675      9010.549    1742.400      1967.631      9012.490    1778.229
     2071.698      9091.524    1744.066      2104.835      9093.559    1775.028
     2209.695      9172.290    1742.391      2246.740      9174.951    1775.814
     2348.374      9253.047    1740.497      2385.593      9256.204    1772.205
     2487.227      9333.753    1738.182      2525.308      9337.620    1767.787
     2624.989      9414.231    1735.583      2677.517      9420.725    1772.258
     2763.033      9494.555    1734.888      2826.980      9504.280    1775.393
     2895.629      9573.612    1731.831      2965.419      9586.687    1773.561
     3030.027      9652.267    1729.350      3096.975      9667.739    1769.360
     3175.611      9733.234    1731.693      3231.777      9749.165    1767.603
     3315.577      9812.589    1729.810      3365.732      9829.870    1765.563
     3455.870      9891.729    1728.448      3511.232      9914.634    1772.015
     3601.769      9973.327    1733.470      3653.554      9998.680    1775.802
     3747.696     10055.623    1740.326      3803.557     10087.456    1785.525
     3891.267     10137.227    1747.130      3943.376     10171.135    1789.920
     4030.198     10216.020    1753.750      4075.547     10249.051    1793.819
     4171.579     10296.693    1766.861      4215.396     10331.879    1810.814
     4311.727     10376.633    1784.343      4353.526     10413.104    1832.028
     4450.062     10455.235    1806.107      4509.770     10510.470    1878.201
     4598.872     10544.158    1842.149      4640.503     10583.360    1897.124
     4730.525     10616.963    1857.115      4767.783     10651.934    1906.363
     4882.378     10708.548    1894.717      4915.000     10738.617    1934.455
     5031.092     10796.876    1920.479      5067.632     10829.968    1959.992
     5156.478     10864.178    1917.942      5197.930     10901.230    1957.247
     5285.235     10934.805    1916.742      5331.841     10976.016    1957.783
     5427.579     11017.560    1922.344      5474.071     11058.280    1965.017
     5570.092     11100.455    1923.740      5606.733     11132.274    1962.241
     5709.610     11180.747    1921.073      5742.499     11209.116    1960.323
     5853.339     11264.653    1925.755      5883.558     11290.615    1963.381
     5994.652     11346.452    1925.488      6021.848     11369.795    1963.254
      476.663      7982.535    1722.916       477.000      7981.945    1748.457
      616.819      8063.396    1730.717       618.165      8062.818    1757.003
      756.873      8144.392    1732.923       759.817      8143.830    1760.070
      896.442      8225.426    1733.178       900.837      8225.025    1756.647
     1035.205      8306.441    1732.653      1043.197      8306.125    1760.672
     1174.305      8387.391    1735.001      1186.999      8387.258    1766.136
     1313.000      8468.327    1736.965      1329.391      8468.443    1767.366
     1450.197      8549.219    1736.819      1472.318      8549.634    1769.592
     1587.631      8630.080    1736.975      1616.296      8630.862    1771.588
     1726.312      8710.953    1737.517      1760.308      8712.123    1772.013
     1862.939      8791.726    1735.327      1901.145      8793.292    1770.148
     2004.957      8872.701    1738.047      2045.218      8874.627    1772.681
     2150.026      8953.864    1743.001      2190.334      8956.092    1776.318
     2293.782      9035.013    1745.621      2338.167      9037.851    1780.665
     2435.150      9116.052    1744.618      2477.900      9119.241    1776.139
     2574.857      9196.977    1741.133      2620.384      9201.006    1771.749
     2707.409      9277.125    1733.449      2759.661      9282.744    1765.082
     2843.760      9357.394    1730.461      2905.708      9365.627    1763.902
     2974.833      9436.478    1726.342      3043.178      9447.714    1760.841
     3106.268      9514.701    1721.788      3184.964      9530.927    1762.917
     3252.697      9595.609    1723.199      3318.338      9612.561    1761.043
     3390.442      9674.120    1719.502      3450.072      9693.191    1758.341
     3531.188      9753.060    1718.177      3589.370      9775.860    1760.219
     3672.566      9831.946    1720.166      3733.698      9860.933    1765.850
     3822.065      9915.232    1730.448      3884.444      9950.511    1776.712
     3966.127      9996.481    1738.573      4019.686     10031.904    1779.321
     4102.821     10072.890    1744.811      4159.955     10116.127    1791.513
     4245.333     10153.705    1759.008      4306.374     10205.646    1816.346
     4396.393     10243.305    1787.987      4442.530     10286.462    1839.214
     4523.789     10311.397    1798.261      4597.950     10385.143    1887.736
     4685.110     10413.701    1850.941      4723.952     10452.940    1900.498
     4825.299     10494.480    1877.922      4864.917     10533.687    1928.490
     4978.343     10587.040    1916.423      5014.446     10621.276    1958.230
     5108.423     10657.714    1921.533      5146.427     10692.454    1959.500
     5229.067     10720.679    1915.666      5273.511     10760.362    1954.113
     5361.673     10794.828    1917.719      5412.553     10839.538    1959.303
     5504.903     10878.390    1923.237      5555.043     10921.890    1967.435
     5646.183     10960.249    1922.773      5685.286     10993.772    1963.262
     5787.695     11042.307    1921.555      5822.990     11072.253    1963.565
     5933.022     11127.551    1928.116      5965.441     11154.847    1967.565
     6074.373     11209.398    1927.776      6103.644     11233.943    1967.417
      556.090      7844.962    1718.662       556.433      7844.365    1742.839
      696.006      7925.875    1723.475       697.264      7925.347    1746.373
      835.731      8006.868    1725.363       838.709      8006.317    1750.977
      975.027      8087.865    1726.507       980.675      8087.372    1754.248
     1114.528      8168.807    1730.044      1124.412      8168.441    1761.418
     1255.091      8249.742    1735.953      1268.429      8249.623    1765.907
     1392.622      8330.694    1735.501      1410.722      8330.833    1767.146
     1529.727      8411.591    1735.477      1552.853      8412.019    1768.146
     1666.549      8492.447    1735.192      1696.577      8493.229    1769.217
     1804.354      8573.304    1735.257      1840.513      8574.461    1769.309
     1941.097      8654.099    1733.679      1983.667      8655.691    1769.475
     2080.220      8734.952    1734.322      2124.170      8736.839    1768.801
     2222.125      8815.919    1736.539      2271.628      8818.344    1773.306
     2370.759      8897.270    1741.538      2416.429      8899.826    1773.290
     2518.486      8978.690    1742.791      2566.225      8981.765    1773.258
     2664.953      9060.178    1741.089      2712.954      9063.799    1769.197
     2793.437      9140.260    1729.532      2852.250      9145.608    1760.976
     2926.140      9220.382    1723.691      3000.542      9228.803    1758.658
     3051.323      9298.971    1717.058      3144.730      9312.240    1758.267
     3186.450      9378.006    1714.261      3271.351      9393.403    1754.922
     3331.801      9458.598    1715.733      3413.324      9477.472    1758.542
     3469.368      9537.138    1712.816      3540.458      9557.925    1754.824
     3607.649      9615.111    1710.297      3678.068      9640.866    1756.661
     3746.182      9692.307    1710.897      3815.646      9723.771    1758.147
     3890.827      9771.875    1717.472      3960.335      9810.529    1765.003
     4034.797      9851.469    1724.834      4092.830      9890.425    1766.621
     4170.255      9925.000    1730.418      4237.320      9978.176    1782.246
     4317.965     10008.635    1747.333      4382.165     10067.558    1805.485
     4461.082     10090.033    1765.143      4514.652     10145.077    1825.067
     4592.909     10160.727    1778.434      4685.992     10263.682    1897.285
     4715.320     10222.399    1783.879      4824.630     10344.523    1921.710
     4927.653     10382.534    1901.717      4968.917     10426.522    1953.772
     5065.042     10457.941    1921.523      5100.876     10493.440    1962.373
     5184.465     10517.444    1917.616      5224.872     10555.061    1956.358
     5307.747     10582.614    1915.948      5352.207     10622.397    1952.159
     5442.480     10658.706    1920.180      5491.207     10701.250    1958.348
     5582.637     10739.622    1923.534      5628.922     10779.352    1963.922
     5726.049     10823.322    1925.526      5763.744     10855.195    1964.604
     5870.637     10907.957    1927.786      5904.958     10936.582    1968.928
     6015.195     10992.491    1933.281      6048.379     11019.865    1973.241
     6156.614     11074.391    1932.985      6186.474     11098.849    1973.108
      635.559      7707.319    1717.769       635.964      7706.611    1746.190
      775.270      7788.314    1718.592       776.768      7787.707    1745.222
      914.888      7869.280    1721.294       918.286      7868.680    1749.624
     1054.063      7950.258    1722.822      1060.442      7949.732    1752.662
     1193.336      8031.189    1726.130      1205.044      8030.791    1760.943
     1332.283      8112.123    1728.938      1346.792      8112.017    1759.466
     1471.537      8193.054    1732.565      1490.773      8193.215    1764.556
     1611.389      8274.003    1736.411      1635.386      8274.435    1768.916
     1751.419      8354.967    1738.973      1783.263      8355.744    1773.298
     1882.772      8435.680    1732.419      1919.520      8436.753    1765.466
     2020.164      8516.521    1731.708      2069.031      8518.151    1770.999
     2156.430      8597.290    1730.620      2205.381      8599.134    1766.867
     2299.188      8678.287    1733.202      2352.594      8680.552    1769.844
     2447.106      8759.542    1735.895      2498.539      8762.007    1768.167
     2599.057      8841.106    1736.751      2646.700      8843.701    1763.801
     2743.929      8922.420    1731.226      2799.975      8925.930    1760.549
     2881.520      9003.339    1722.721      2949.738      9008.340    1755.665
     3008.721      9083.319    1713.353      3092.166      9090.819    1749.381
     3133.600      9162.246    1706.102      3232.846      9174.156    1750.658
     3272.772      9242.194    1706.904      3373.066      9258.021    1753.904
     3415.211      9322.490    1709.270      3502.001      9340.246    1751.995
     3551.670      9401.134    1708.074      3633.359      9422.608    1752.306
     3691.004      9479.798    1708.364      3759.558      9502.742    1749.182
     3831.323      9558.177    1710.850      3911.035      9591.799    1759.678
     3972.689      9636.187    1714.997      4046.367      9675.644    1761.337
     4111.127      9711.574    1717.874      4174.062      9754.117    1760.659
     4251.903      9787.868    1725.775      4318.988      9843.658    1776.048
     4395.915      9867.462    1737.252      4465.756      9937.084    1800.754
     4537.184      9945.770    1749.462      4589.262     10006.067    1810.929
     4671.346     10015.142    1758.949      4712.008     10069.976    1819.295
     4793.986     10075.656    1765.925      4906.441     10225.989    1920.976
     5008.953     10251.991    1895.141      5050.436     10301.058    1949.749
     5142.193     10319.986    1910.970      5184.040     10363.532    1959.479
     5266.788     10383.077    1914.630      5310.266     10424.394    1955.854
     5394.047     10451.387    1918.225      5438.726     10491.456    1953.683
     5526.862     10525.690    1922.508      5574.513     10566.933    1959.360
     5660.315     10600.889    1922.071      5710.309     10643.205    1966.115
     5809.000     10688.984    1930.844      5848.732     10722.009    1972.114
     5953.424     10773.392    1934.339      5988.367     10801.971    1975.790
     6098.173     10857.993    1938.995      6132.369     10885.582    1979.638