NOECHO

-- =============================================================================
-- 
-- Exported from Reek_base_sim
-- 
-- Exported by user asny from RMS11 at 2020-02-19 16:57:05
-- 
-- =============================================================================

MAPUNITS
'METRES  ' /

MAPAXES
456514.891 5939176.751
456514.891 5927115.548
467218.119 5927115.548 /

GRIDUNIT
'METRES  ' '        ' /

SPECGRID
  40  64  14   1  F  /

GDORIENT
INC INC INC DOWN RIGHT /

COORD
        0.000      8808.111    1733.400         0.149      8807.793    1759.105
      140.042      8889.150    1733.936       140.766      8888.859    1758.753
      279.982      8970.180    1736.009       281.608      8969.864    1763.973
      419.845      9051.187    1738.989       423.002      9050.855    1773.031
      559.534      9132.184    1741.105       564.498      9131.910    1777.125
      699.198      9213.164    1743.924       706.130      9212.995    1780.135
      838.642      9294.132    1745.707       848.172      9294.106    1782.524
      977.803      9375.081    1746.179       989.961      9375.250    1783.061
     1116.712      9455.994    1744.652      1130.714      9456.399    1779.003
     1255.349      9536.860    1741.529      1272.572      9537.609    1778.052
     1393.487      9617.650    1737.661      1415.787      9618.953    1780.336
     1531.448      9698.358    1735.383      1556.588      9700.228    1777.294
     1670.074      9779.038    1735.650      1697.699      9781.583    1774.451
     1808.520      9859.618    1735.855      1835.832      9862.685    1768.397
     1945.912      9939.933    1735.451      1973.752      9943.733    1764.066
     2083.942     10020.133    1736.445      2115.094     10025.298    1765.137
     2222.080     10100.114    1737.625      2257.535     10107.250    1769.111
     2361.391     10180.093    1740.265      2399.932     10189.468    1775.545
     2502.070     10260.245    1745.395      2542.580     10272.051    1784.676
     2644.460     10340.889    1753.777      2684.708     10354.777    1794.317
     2785.151     10420.942    1760.501      2827.802     10438.142    1802.962
     2924.898     10500.481    1763.914      2969.673     10521.255    1804.752
     3064.226     10579.637    1764.279      3110.139     10603.756    1803.293
     3203.382     10658.514    1762.877      3247.656     10684.450    1799.476
     3343.028     10737.551    1761.132      3383.772     10763.823    1795.020
     3483.160     10816.868    1760.377      3519.034     10842.047    1791.810
     3621.815     10895.106    1760.633      3658.709     10923.005    1795.768
     3760.489     10973.312    1763.744      3800.438     11005.512    1805.934
     3901.636     11053.653    1771.685      3939.333     11085.676    1816.546
     4042.401     11133.945    1784.319      4080.391     11167.571    1832.899
     4186.561     11217.597    1809.074      4228.188     11255.556    1860.040
     4331.636     11302.471    1834.575      4376.661     11344.329    1886.141
     4468.663     11380.057    1847.408      4515.566     11424.121    1900.472
     4612.588     11464.233    1867.992      4657.371     11506.493    1919.373
     4760.439     11552.203    1894.592      4800.696     11590.252    1940.518
     4903.699     11635.868    1911.514      4943.280     11673.337    1953.892
     5042.223     11715.054    1917.511      5081.221     11752.070    1959.241
     5181.690     11795.130    1920.774      5217.008     11828.777    1962.578
     5322.643     11876.617    1924.696      5353.226     11905.893    1966.081
     5463.503     11958.015    1929.417      5489.577     11983.121    1969.230
     5603.913     12038.974    1929.156      5626.829     12061.203    1969.096
       79.452      8670.472    1733.427        79.618      8670.180    1759.122
      219.528      8751.509    1733.972       220.240      8751.234    1758.811
      359.529      8832.533    1736.048       361.139      8832.232    1764.013
      499.486      8913.538    1739.029       502.647      8913.220    1773.035
      639.314      8994.536    1741.169       644.253      8994.280    1777.156
      779.118      9075.522    1743.959       786.054      9075.372    1780.151
      918.652      9156.501    1745.748       928.228      9156.491    1782.549
     1057.841      9237.458    1746.219      1070.073      9237.642    1783.056
     1196.815      9318.384    1744.698      1210.828      9318.792    1779.004
     1335.679      9399.274    1741.563      1353.004      9400.016    1778.061
     1473.954      9480.095    1737.726      1496.483      9481.375    1780.342
     1612.083      9560.842    1735.470      1637.222      9562.649    1777.258
     1751.129      9641.596    1735.719      1778.182      9643.992    1774.454
     1890.270      9722.301    1735.917      1916.353      9725.111    1768.355
     2028.702      9802.839    1735.576      2054.883      9806.262    1764.075
     2167.729      9883.329    1736.554      2197.032      9887.988    1765.185
     2306.882      9963.695    1737.808      2340.298      9970.162    1769.215
     2446.786     10044.063    1740.514      2483.139     10052.601    1775.722
     2587.654     10124.573    1745.855      2625.722     10135.328    1784.909
     2729.589     10205.390    1754.172      2767.859     10218.247    1794.547
     2870.379     10285.821    1760.803      2911.979     10302.220    1803.133
     3010.960     10366.098    1764.102      3054.063     10385.724    1804.806
     3151.226     10446.144    1764.341      3194.386     10468.471    1803.286
     3291.145     10525.915    1762.908      3331.947     10549.525    1799.456
     3431.500     10605.885    1761.128      3468.947     10629.794    1794.925
     3572.140     10686.059    1760.427      3605.303     10709.159    1792.000
     3710.543     10764.627    1760.792      3744.815     10790.389    1796.339
     3847.756     10842.123    1764.132      3884.536     10871.635    1806.451
     3986.869     10921.082    1772.162      4020.989     10949.967    1816.860
     4125.969     11000.116    1784.955      4159.742     11029.924    1833.025
     4268.935     11082.790    1809.722      4304.597     11115.226    1859.338
     4411.838     11165.697    1834.688      4450.524     11201.558    1885.147
     4548.240     11242.722    1847.421      4589.444     11281.294    1899.879
     4691.573     11326.335    1867.895      4731.347     11363.700    1918.592
     4838.325     11413.236    1894.282      4874.275     11447.025    1939.408
     4981.082     11496.406    1911.323      5018.381     11531.480    1953.557
     5120.218     11576.178    1917.474      5158.004     11611.771    1959.249
     5260.574     11657.096    1920.775      5295.031     11689.650    1962.683
     5402.325     11739.335    1924.726      5432.215     11767.690    1966.195
     5543.520     11821.047    1929.437      5569.371     11845.705    1969.354
     5683.718     11901.807    1929.173      5706.730     11923.910    1969.213
      158.899      8532.864    1731.929       159.104      8532.508    1759.088
      298.923      8613.908    1731.699       299.669      8613.616    1755.276
      438.843      8694.929    1733.104       440.610      8694.605    1760.808
      578.833      8775.915    1736.654       582.575      8775.559    1772.651
      718.577      8856.910    1738.166       724.099      8856.650    1774.500
      858.638      8937.885    1742.305       866.192      8937.749    1777.912
      997.960      9018.864    1743.552      1007.849      9018.878    1777.790
     1137.094      9099.820    1744.403      1150.871      9100.043    1781.576
     1275.685      9180.738    1742.585      1290.595      9181.167    1775.343
     1414.950      9261.646    1740.717      1433.675      9262.412    1776.076
     1552.294      9342.429    1735.768      1578.173      9343.806    1779.452
     1690.139      9423.169    1733.420      1717.553      9424.988    1774.703
     1829.436      9503.949    1733.938      1858.042      9506.265    1772.227
     1968.213      9584.633    1733.455      1992.328      9586.993    1762.340
     2107.570      9665.298    1733.735      2132.667      9668.275    1760.540
     2246.739      9745.845    1734.280      2275.538      9750.009    1761.991
     2385.489      9826.184    1734.686      2418.513      9832.030    1764.923
     2525.371      9906.562    1736.976      2561.322      9914.355    1770.290
     2665.348      9986.824    1740.748      2705.726      9997.458    1779.940
     2808.338     10067.886    1749.099      2846.854     10080.066    1787.242
     2950.467     10148.792    1755.934      2994.444     10165.268    1797.712
     3090.850     10229.021    1758.256      3133.217     10247.528    1796.605
     3231.814     10309.428    1758.752      3275.417     10331.260    1797.552
     3371.298     10388.995    1756.993      3411.023     10411.423    1792.630
     3511.474     10468.855    1755.680      3548.922     10492.344    1789.653
     3653.117     10549.714    1756.725      3682.435     10569.884    1784.384
     3788.120     10625.826    1754.499      3822.307     10651.315    1789.351
     3925.237     10703.155    1758.477      3963.639     10733.811    1802.377
     4066.587     10783.925    1771.203      4098.355     10810.735    1812.972
     4200.578     10858.496    1778.903      4234.140     10888.055    1827.323
     4346.467     10943.722    1808.862      4380.103     10974.243    1857.328
     4494.760     11031.597    1842.607      4530.405     11064.525    1891.306
     4624.975     11102.919    1847.799      4663.835     11139.107    1899.181
     4767.396     11185.674    1867.445      4806.370     11222.011    1917.738
     4920.372     11278.323    1900.854      4957.957     11313.291    1946.428
     5062.300     11360.687    1915.968      5098.801     11394.577    1955.809
     5197.524     11436.838    1917.746      5233.813     11470.513    1956.492
     5335.281     11515.343    1917.457      5370.699     11548.240    1958.847
     5477.911     11598.368    1921.349      5508.231     11626.599    1961.431
     5619.952     11680.846    1926.352      5646.558     11705.718    1964.815
     5760.436     11761.865    1926.093      5784.239     11784.243    1964.642
      238.374      8395.211    1732.596       238.658      8394.714    1764.982
      378.383      8476.283    1730.825       379.384      8475.879    1759.403
      518.167      8557.326    1730.214       520.250      8556.940    1759.580
      658.085      8638.304    1733.396       661.853      8637.951    1765.579
      797.846      8719.285    1735.264       803.699      8719.024    1769.553
      937.195      8800.267    1736.426       945.100      8800.141    1769.649
     1075.802      8881.228    1736.823      1087.645      8881.259    1773.215
     1215.595      8962.175    1740.777      1229.734      8962.405    1774.440
     1355.315      9043.119    1742.247      1372.331      9043.589    1775.122
     1494.513      9124.035    1740.894      1516.000      9124.856    1776.376
     1634.341      9204.961    1740.371      1659.848      9206.208    1777.996
     1772.722      9285.790    1738.536      1800.554      9287.466    1775.878
     1908.313      9366.365    1734.031      1933.973      9368.234    1765.595
     2047.156      9447.082    1733.521      2072.250      9449.279    1761.927
     2188.058      9527.940    1734.961      2212.890      9530.570    1760.428
     2327.065      9608.540    1734.626      2354.334      9612.068    1759.804
     2467.507      9689.239    1735.808      2498.457      9694.178    1762.445
     2607.124      9769.713    1737.310      2645.500      9777.282    1769.671
     2748.877      9850.557    1741.761      2791.026      9860.771    1777.918
     2888.844      9930.920    1745.639      2927.215      9942.213    1778.818
     3028.614     10011.042    1748.598      3067.154     10024.636    1781.239
     3167.227     10090.456    1748.422      3209.309     10107.973    1783.625
     3313.376     10173.128    1753.004      3357.311     10194.350    1790.351
     3458.283     10255.792    1756.644      3498.180     10277.777    1791.477
     3594.708     10333.780    1753.692      3632.889     10357.395    1787.559
     3737.516     10415.621    1757.744      3771.358     10438.763    1788.497
     3872.521     10492.009    1757.479      3910.682     10520.451    1794.416
     4008.905     10568.997    1762.573      4050.056     10601.966    1807.696
     4147.221     10647.397    1774.210      4177.717     10673.308    1812.965
     4290.244     10730.030    1797.201      4321.710     10757.940    1841.384
     4435.572     10815.115    1827.618      4466.216     10843.050    1871.474
     4572.878     10893.038    1846.692      4603.915     10921.751    1889.597
     4705.989     10967.083    1856.519      4739.944     10998.646    1901.715
     4855.122     11056.087    1884.872      4889.562     11088.037    1928.450
     5005.062     11145.818    1912.229      5040.010     11178.086    1951.841
     5135.750     11217.799    1913.455      5172.748     11251.797    1951.429
     5273.308     11296.157    1917.227      5308.356     11328.252    1952.926
     5415.447     11378.718    1921.223      5444.089     11404.899    1953.306
     5556.478     11460.260    1922.814      5581.881     11483.480    1954.876
     5697.907     11542.156    1926.223      5723.481     11565.579    1961.062
     5838.708     11623.468    1926.030      5861.478     11644.407    1960.767
      317.866      8257.525    1733.734       318.161      8257.011    1763.245
      458.012      8338.585    1733.550       459.141      8338.122    1762.525
      597.754      8419.674    1730.512       600.294      8419.200    1762.450
      737.077      8500.716    1728.333       741.531      8500.303    1761.749
      876.312      8581.697    1728.653       883.111      8581.402    1763.223
     1015.560      8662.652    1731.019      1024.420      8662.519    1763.226
     1155.051      8743.598    1735.189      1167.197      8743.632    1767.699
     1292.964      8824.517    1735.421      1308.342      8824.757    1767.451
     1431.421      8905.413    1735.959      1453.752      8905.989    1773.779
     1571.577      8986.341    1737.563      1595.942      8987.196    1772.658
     1714.165      9067.375    1741.316      1740.089      9068.522    1774.599
     1854.334      9148.322    1741.914      1883.610      9149.899    1776.540
     1991.518      9229.071    1739.659      2019.754      9230.894    1771.065
     2127.882      9309.678    1736.412      2156.443      9311.881    1766.228
     2264.938      9390.214    1733.590      2294.950      9393.008    1762.356
     2406.368      9471.086    1734.865      2436.967      9474.567    1761.278
     2545.280      9551.601    1733.673      2579.086      9556.369    1760.159
     2686.587      9632.367    1735.427      2728.466      9639.737    1766.519
     2829.410      9713.451    1739.177      2878.831      9724.263    1775.163
     2964.732      9792.659    1737.955      3008.973      9804.574    1770.016
     3100.192      9871.203    1736.017      3143.657      9885.433    1767.688
     3241.571      9951.240    1736.693      3287.028      9969.071    1770.862
     3386.298     10032.743    1739.345      3433.782     10054.709    1776.990
     3537.000     10117.922    1748.259      3581.629     10141.862    1785.336
     3679.181     10199.364    1752.221      3723.485     10226.440    1789.766
     3821.436     10281.132    1758.095      3860.120     10307.580    1791.467
     3955.757     10357.252    1759.359      3999.188     10389.894    1798.654
     4092.426     10434.625    1766.932      4133.215     10467.809    1808.982
     4227.928     10510.743    1778.124      4261.891     10540.221    1818.756
     4379.646     10601.426    1814.682      4421.446     10639.360    1869.369
     4522.874     10684.984    1843.744      4558.920     10718.403    1893.641
     4647.809     10751.460    1847.255      4684.698     10785.934    1897.753
     4789.692     10833.727    1870.876      4821.790     10863.653    1912.710
     4947.307     10930.588    1909.024      4978.066     10959.068    1945.871
     5085.348     11009.238    1919.326      5117.668     11038.926    1953.315
     5210.603     11076.294    1913.915      5245.597     11108.192    1947.501
     5348.158     11154.704    1916.512      5378.029     11181.750    1945.550
     5492.710     11239.451    1921.954      5521.859     11265.708    1953.617
     5632.572     11319.953    1921.434      5661.449     11345.887    1956.868
     5775.965     11403.611    1926.451      5803.240     11428.089    1962.073
     5917.078     11485.205    1926.173      5941.434     11507.108    1961.843
      397.303      8119.938    1728.502       397.595      8119.427    1755.103
      537.502      8200.942    1731.661       538.856      8200.385    1762.984
      677.388      8282.009    1730.490       680.140      8281.498    1761.298
      816.903      8363.051    1729.369       821.684      8362.612    1760.697
      955.354      8444.083    1726.013       962.286      8443.788    1756.068
     1093.800      8525.040    1726.604      1103.160      8524.903    1755.457
     1232.993      8605.968    1730.865      1246.444      8606.004    1761.999
     1371.035      8686.878    1732.541      1391.003      8687.168    1769.172
     1508.371      8767.745    1732.259      1536.375      8768.410    1774.540
     1648.875      8848.674    1735.252      1678.898      8849.627    1773.632
     1789.115      8929.597    1736.551      1819.086      8930.781    1770.442
     1932.192      9010.651    1740.717      1965.264      9012.224    1775.216
     2071.196      9091.517    1740.754      2104.482      9093.398    1773.687
     2208.170      9172.214    1738.416      2244.543      9174.654    1772.391
     2347.722      9253.025    1737.540      2386.268      9256.127    1771.020
     2486.474      9333.713    1735.319      2520.970      9337.095    1762.350
     2626.689      9414.472    1733.517      2664.459      9419.072    1759.884
     2769.116      9495.500    1734.392      2814.600      9502.470    1763.575
     2903.729      9575.102    1731.404      2954.942      9584.967    1762.473
     3034.906      9653.226    1726.792      3088.604      9666.178    1758.947
     3174.968      9732.776    1726.423      3228.200      9748.675    1759.350
     3318.835      9813.383    1727.112      3365.834      9830.519    1758.502
     3460.787      9893.349    1727.103      3514.934      9917.105    1766.611
     3610.129      9977.154    1735.138      3658.274     10002.163    1772.548
     3754.442     10059.295    1742.302      3805.578     10090.171    1782.911
     3901.140     10143.736    1753.404      3948.516     10176.302    1791.554
     4037.453     10221.316    1758.415      4083.756     10256.788    1797.356
     4175.107     10299.546    1768.941      4220.455     10337.594    1812.815
     4312.101     10377.027    1784.446      4355.856     10416.516    1834.307
     4450.322     10455.659    1806.601      4512.972     10514.984    1882.980
     4599.288     10544.904    1842.630      4639.974     10584.096    1897.076
     4730.436     10616.998    1856.430      4769.860     10654.876    1909.406
     4884.517     10710.912    1897.707      4917.892     10742.441    1939.734
     5031.130     10797.412    1920.947      5062.874     10826.884    1956.449
     5154.902     10862.862    1915.240      5192.837     10897.611    1952.252
     5285.081     10934.511    1914.313      5327.049     10972.526    1952.158
     5427.283     11017.156    1919.950      5464.839     11050.841    1955.198
     5569.790     11100.060    1922.369      5604.028     11130.506    1959.142
     5709.574     11180.536    1920.992      5743.104     11210.152    1961.953
     5854.344     11265.386    1927.217      5884.821     11292.202    1966.012
     5995.736     11347.233    1926.894      6023.070     11371.268    1965.856
      476.683      7982.448    1719.590       476.958      7981.969    1742.274
      616.688      8063.422    1723.248       617.951      8062.906    1749.683
      756.647      8144.413    1726.029       759.467      8143.897    1754.307
      896.393      8225.416    1727.612       901.337      8224.971    1756.114
     1035.309      8306.431    1727.077      1042.716      8306.123    1754.694
     1174.285      8387.399    1729.207      1185.973      8387.229    1760.026
     1312.174      8468.345    1730.204      1327.650      8468.379    1761.472
     1449.158      8549.248    1730.339      1471.189      8549.539    1766.649
     1586.625      8630.122    1730.850      1613.263      8630.693    1767.640
     1726.208      8711.028    1733.158      1757.949      8711.926    1770.075
     1862.936      8791.828    1731.323      1899.327      8793.092    1768.349
     2007.420      8872.895    1737.007      2045.252      8874.463    1772.252
     2149.722      8953.906    1740.093      2189.721      8955.859    1775.179
     2292.363      9034.960    1742.267      2334.681      9037.396    1777.055
     2434.078      9115.997    1741.797      2472.570      9118.630    1771.056
     2575.410      9197.048    1739.406      2616.588      9200.454    1767.744
     2711.233      9277.591    1732.769      2758.041      9282.406    1761.708
     2848.201      9358.056    1728.869      2896.967      9364.431    1755.758
     2979.017      9437.209    1723.424      3034.807      9446.446    1751.521
     3108.878      9515.176    1718.008      3180.014      9530.187    1753.715
     3252.299      9595.357    1718.260      3320.928      9613.704    1754.743
     3397.281      9676.094    1718.285      3453.810      9694.950    1751.995
     3535.882      9754.519    1715.959      3582.833      9773.804    1747.290
     3676.573      9833.318    1718.261      3732.796      9861.350    1758.400
     3823.568      9915.645    1728.017      3880.936      9949.762    1770.138
     3972.055     10000.234    1740.825      4024.904     10036.888    1780.486
     4108.646     10077.109    1747.116      4163.416     10120.356    1790.244
     4252.464     10159.865    1763.307      4305.305     10206.438    1811.845
     4397.102     10244.378    1787.615      4436.898     10282.560    1832.188
     4523.194     10311.150    1796.495      4599.772     10388.448    1889.467
     4685.657     10414.917    1850.248      4725.484     10455.783    1902.120
     4826.578     10496.388    1878.557      4866.840     10537.031    1931.608
     4978.125     10587.693    1916.859      5013.431     10621.976    1959.768
     5108.139     10658.036    1921.500      5144.599     10692.219    1959.930
     5228.923     10720.626    1914.292      5272.140     10760.207    1953.780
     5361.924     10794.918    1915.820      5411.717     10839.781    1958.548
     5505.956     10879.211    1922.228      5552.070     10920.220    1964.668
     5646.870     10960.717    1922.304      5687.263     10996.206    1965.858
     5789.432     11043.660    1923.508      5826.288     11075.704    1969.106
     5934.382     11128.625    1929.911      5967.837     11157.493    1971.928
     6075.917     11210.596    1929.577      6106.033     11236.485    1971.850
      556.092      7844.908    1714.142       556.391      7844.386    1737.172
      695.900      7925.885    1716.600       697.201      7925.365    1741.521
      835.776      8006.838    1720.779       839.040      8006.254    1750.500
      975.188      8087.841    1722.146       981.844      8087.257    1756.488
     1115.280      8168.780    1727.518      1125.316      8168.371    1760.453
     1254.787      8249.757    1730.957      1268.300      8249.562    1762.182
     1392.201      8330.727    1731.109      1409.359      8330.751    1762.036
     1528.616      8411.642    1730.481      1550.561      8411.896    1763.679
     1665.283      8492.519    1729.970      1693.314      8493.046    1765.991
     1803.835      8573.412    1731.178      1839.950      8574.298    1770.152
     1941.396      8654.261    1730.635      1982.037      8655.468    1768.788
     2079.045      8735.075    1730.238      2123.340      8736.632    1767.993
     2222.377      8816.077    1734.097      2263.609      8817.775    1766.875
     2371.473      8897.379    1740.221      2410.992      8899.286    1769.184
     2521.984      8978.901    1743.531      2562.934      8981.228    1770.693
     2666.213      9060.233    1740.207      2709.738      9063.197    1766.524
     2796.473      9140.584    1728.881      2849.224      9145.034    1758.084
     2930.462      9220.970    1722.527      2992.155      9227.703    1752.055
     3059.172      9300.208    1715.923      3132.396      9310.471    1747.634
     3196.322      9379.897    1713.874      3273.000      9393.793    1748.038
     3337.412      9459.940    1713.421      3417.900      9478.823    1751.534
     3475.506      9538.871    1710.214      3546.163      9560.031    1748.077
     3608.784      9615.240    1705.416      3674.768      9640.174    1745.218
     3746.626      9691.976    1706.551      3812.680      9723.091    1749.288
     3889.772      9770.654    1713.264      3952.776      9807.183    1755.881
     4037.388      9852.728    1724.366      4095.563      9893.387    1765.648
     4175.134      9928.446    1731.134      4238.790      9980.714    1779.256
     4320.662     10011.100    1746.770      4380.562     10067.588    1800.461
     4459.434     10088.665    1761.086      4509.561     10141.095    1817.766
     4591.707     10159.949    1774.373      4687.075     10266.487    1895.830
     4716.635     10224.059    1780.891      4821.159     10342.355    1916.399
     4926.766     10382.837    1900.231      4967.013     10426.568    1953.290
     5065.355     10459.467    1922.528      5100.296     10494.901    1964.542
     5185.744     10519.319    1918.400      5226.881     10558.625    1960.357
     5307.717     10582.757    1914.511      5357.831     10628.795    1958.295
     5443.947     10660.006    1919.425      5496.237     10706.854    1962.905
     5586.452     10742.909    1924.895      5631.008     10782.136    1965.639
     5728.371     10825.276    1926.490      5769.845     10861.229    1971.433
     5872.825     10909.801    1930.152      5909.840     10941.448    1976.385
     6016.941     10993.973    1935.358      6051.581     11023.264    1978.371
     6158.513     11075.957    1935.070      6189.626     11102.085    1978.337
      635.567      7707.253    1714.023       635.895      7706.681    1738.503
      775.257      7788.285    1713.553       776.698      7787.727    1739.362
      915.084      7869.228    1717.736       918.799      7868.585    1749.052
     1054.546      7950.216    1720.014      1060.672      7949.695    1748.970
     1193.437      8031.204    1722.176      1204.259      8030.773    1754.316
     1331.925      8112.168    1725.037      1347.390      8111.943    1757.222
     1470.305      8193.112    1728.352      1490.872      8193.119    1762.112
     1609.437      8274.055    1732.222      1632.764      8274.278    1765.065
     1748.732      8355.006    1734.499      1779.887      8355.494    1771.814
     1883.592      8435.869    1730.801      1917.864      8436.557    1765.498
     2020.911      8516.747    1730.041      2065.669      8517.823    1769.757
     2156.783      8597.550    1728.319      2201.367      8598.810    1764.069
     2299.691      8678.525    1731.319      2348.404      8680.139    1767.432
     2447.324      8759.693    1734.690      2497.708      8761.648    1768.475
     2599.854      8841.170    1736.187      2647.906      8843.368    1764.780
     2744.296      8922.426    1730.307      2800.905      8925.501    1761.045
     2882.590      9003.431    1721.834      2946.794      9007.663    1753.914
     3008.784      9083.457    1710.976      3084.021      9089.847    1743.767
     3138.982      9163.090    1704.623      3217.934      9172.168    1738.476
     3280.628      9243.629    1705.633      3363.233      9256.314    1741.051
     3418.772      9323.394    1705.826      3501.706      9340.187    1742.732
     3551.706      9401.252    1702.508      3633.942      9422.943    1742.443
     3688.924      9479.063    1701.688      3757.149      9502.252    1738.504
     3827.144      9556.183    1703.746      3903.767      9589.324    1748.355
     3968.227      9633.396    1708.532      4040.173      9673.150    1753.526
     4110.636      9710.782    1714.649      4174.153      9755.182    1757.796
     4251.909      9787.557    1722.313      4319.158      9845.158    1772.415
     4396.719      9868.394    1734.901      4453.845      9926.604    1786.455
     4534.906      9943.712    1744.523      4580.561      9997.255    1798.350
     4669.587     10013.885    1754.404      4708.691     10066.817    1810.958
     4794.472     10076.615    1762.556      4904.125     10225.290    1915.304
     5005.532     10249.524    1890.202      5046.430     10298.968    1946.336
     5141.499     10320.604    1910.332      5183.108     10364.997    1961.123
     5266.114     10383.278    1913.210      5310.270     10426.398    1957.848
     5393.205     10451.050    1916.219      5441.746     10495.780    1957.721
     5528.338     10527.189    1921.748      5578.106     10571.411    1962.517
     5665.031     10604.953    1923.796      5713.959     10647.437    1968.483
     5812.917     10692.406    1933.107      5855.109     10728.361    1978.441
     5956.905     10776.412    1937.524      5993.374     10806.980    1982.045
     6100.692     10860.200    1941.323      6135.521     10888.994    1983.608