NOECHO

-- =============================================================================
-- 
-- Exported from Reek_base_sim
-- 
-- Exported by user asny from RMS11 at 2020-02-19 17:21:23
-- 
-- =============================================================================

MAPUNITS
'METRES  ' /

MAPAXES
456514.853 5939173.394
456514.853 5927115.548
467218.245 5927115.548 /

GRIDUNIT
'METRES  ' '        ' /

SPECGRID
  40  64  14   1  F  /

GDORIENT
INC INC INC DOWN RIGHT /

COORD
        0.000      8808.180    1729.036         0.225      8807.727    1761.670
      139.956      8889.224    1729.938       140.877      8888.822    1759.753
      279.785      8970.250    1732.156       281.717      8969.848    1762.790
      419.521      9051.250    1735.548       423.311      9050.829    1771.819
      559.238      9132.229    1739.856       564.977      9131.895    1776.732
      698.694      9213.209    1742.751       706.176      9213.013    1777.332
      838.122      9294.172    1745.949       848.221      9294.125    1781.551
      977.683      9375.125    1748.488       990.624      9375.276    1784.946
     1116.392      9456.042    1746.535      1131.954      9456.446    1782.000
     1254.257      9536.889    1742.002      1274.675      9537.692    1781.940
     1392.181      9617.673    1738.342      1417.799      9619.035    1783.176
     1529.810      9698.367    1736.677      1558.835      9700.331    1781.901
     1667.801      9778.997    1737.390      1700.103      9781.696    1782.644
     1805.169      9859.466    1737.464      1840.593      9863.061    1779.817
     1942.673      9939.794    1737.965      1979.740      9944.334    1776.169
     2080.249     10019.936    1739.239      2118.390     10025.564    1774.843
     2218.458     10099.933    1741.204      2261.737     10107.627    1779.451
     2358.225     10179.997    1745.045      2405.206     10190.027    1785.489
     2498.465     10259.992    1750.513      2547.491     10272.491    1791.305
     2639.650     10340.104    1756.977      2688.064     10354.730    1795.826
     2781.766     10420.458    1762.950      2831.017     10437.929    1802.291
     2922.790     10500.413    1766.200      2971.945     10520.635    1806.624
     3063.579     10580.227    1767.328      3112.427     10603.193    1809.786
     3204.336     10660.020    1766.538      3249.408     10683.864    1806.839
     3342.987     10738.611    1762.530      3384.241     10762.824    1800.658
     3481.667     10817.036    1758.993      3517.387     10840.033    1793.879
     3620.367     10895.315    1758.034      3653.577     10918.551    1792.940
     3760.108     10974.279    1761.342      3793.263     10999.250    1799.549
     3900.908     11054.169    1770.218      3935.242     11081.713    1813.290
     4041.889     11134.447    1784.931      4079.553     11166.261    1834.103
     4186.410     11218.118    1810.262      4228.806     11255.354    1863.348
     4332.803     11303.939    1836.820      4377.847     11344.556    1890.622
     4468.852     11380.661    1847.190      4516.727     11424.512    1905.233
     4611.504     11463.535    1866.242      4658.283     11506.732    1924.888
     4758.286     11550.336    1893.297      4800.417     11589.421    1946.390
     4902.114     11634.458    1913.106      4940.685     11670.386    1961.358
     5041.949     11714.879    1920.383      5077.232     11747.899    1964.405
     5181.074     11794.631    1921.351      5210.607     11822.420    1960.654
     5321.525     11875.623    1922.929      5347.126     11899.863    1960.455
     5462.534     11957.140    1927.188      5485.427     11978.976    1963.371
     5603.253     12038.378    1926.955      5623.487     12057.845    1963.232
       79.454      8670.535    1729.068        79.697      8670.108    1761.682
      219.440      8751.582    1729.970       220.346      8751.199    1759.807
      359.320      8832.605    1732.190       361.208      8832.222    1762.832
      499.161      8913.601    1735.607       502.876      8913.200    1771.831
      639.058      8994.579    1739.902       644.714      8994.264    1776.749
      778.770      9075.562    1742.802       786.117      9075.383    1777.361
      918.266      9156.539    1746.010       928.311      9156.505    1781.589
     1057.772      9237.502    1748.501      1070.814      9237.665    1784.942
     1196.562      9318.432    1746.553      1212.129      9318.838    1781.999
     1334.759      9399.306    1742.051      1355.197      9400.102    1781.937
     1472.873      9480.121    1738.413      1498.585      9481.458    1783.166
     1610.713      9560.856    1736.770      1639.895      9562.778    1781.869
     1749.150      9641.562    1737.448      1781.853      9644.209    1782.687
     1887.331      9722.165    1737.572      1922.228      9725.584    1779.735
     2025.759      9802.685    1738.123      2061.317      9806.885    1776.107
     2164.264      9883.083    1739.401      2200.586      9888.250    1774.845
     2303.567      9963.440    1741.452      2344.564      9970.475    1779.542
     2444.151     10043.899    1745.379      2488.158     10052.992    1785.582
     2584.956     10124.326    1750.953      2630.855     10135.681    1791.385
     2726.760     10204.964    1757.441      2772.957     10218.547    1795.985
     2869.480     10285.931    1763.337      2917.144     10302.443    1802.521
     3010.629     10366.401    1766.429      3057.867     10385.453    1806.814
     3151.272     10446.634    1767.511      3197.516     10468.023    1809.880
     3291.791     10526.772    1766.465      3333.708     10548.658    1806.741
     3430.951     10606.120    1762.387      3469.212     10628.340    1800.461
     3570.290     10685.448    1758.914      3603.460     10706.625    1793.861
     3708.496     10763.899    1758.182      3739.579     10785.498    1793.275
     3846.736     10842.201    1761.737      3877.983     10865.606    1800.153
     3986.166     10921.347    1770.781      4017.982     10946.760    1813.825
     4125.924     11000.839    1785.684      4160.092     11029.602    1834.443
     4269.324     11083.673    1811.040      4306.598     11116.317    1862.988
     4413.471     11167.547    1836.968      4453.329     11203.378    1889.866
     4548.957     11243.793    1847.253      4592.463     11283.494    1904.828
     4691.374     11326.456    1866.338      4734.615     11366.192    1924.458
     4837.529     11412.655    1893.256      4877.477     11449.488    1945.864
     4980.657     11496.111    1912.985      5018.660     11531.248    1961.101
     5120.491     11576.534    1920.355      5155.281     11608.817    1964.431
     5260.321     11656.952    1921.365      5289.494     11684.147    1960.824
     5401.354     11738.489    1922.964      5426.574     11762.132    1960.626
     5542.659     11820.287    1927.205      5565.238     11841.594    1963.509
     5683.074     11901.240    1926.971      5703.312     11920.496    1963.364
      158.894      8532.941    1727.285       159.187      8532.430    1761.998
      298.833      8613.982    1728.284       299.791      8613.577    1757.474
      438.652      8694.999    1730.366       440.712      8694.589    1761.437
      578.338      8775.995    1732.523       582.545      8775.559    1770.523
      718.350      8856.952    1737.590       724.307      8856.641    1773.269
      857.914      8937.932    1740.011       865.617      8937.767    1773.058
      997.200      9018.903    1742.999      1007.481      9018.888    1776.038
     1137.481      9099.871    1748.021      1151.371      9100.056    1783.073
     1275.867      9180.797    1745.600      1291.299      9181.195    1777.543
     1413.940      9261.671    1741.207      1435.251      9262.471    1778.952
     1551.231      9342.456    1736.652      1579.219      9343.836    1780.802
     1688.720      9423.178    1734.660      1720.514      9425.139    1779.561
     1827.848      9503.942    1735.835      1861.540      9506.477    1778.649
     1964.600      9584.442    1734.029      1999.430      9587.596    1773.767
     2104.264      9665.104    1735.867      2138.991      9668.882    1771.728
     2242.976      9745.562    1736.939      2279.997      9750.415    1771.993
     2381.975      9825.905    1738.348      2425.465      9832.803    1777.288
     2521.513      9906.170    1740.979      2567.139      9914.930    1780.979
     2662.174      9986.520    1745.554      2711.645      9997.964    1787.587
     2804.688     10067.270    1751.288      2851.051     10080.109    1788.547
     2949.174     10148.725    1757.367      2996.272     10164.219    1794.725
     3089.836     10229.016    1759.419      3134.405     10246.237    1796.683
     3230.672     10309.301    1760.552      3279.365     10331.073    1804.770
     3372.461     10390.052    1761.237      3412.617     10410.491    1800.132
     3510.241     10468.666    1756.471      3549.814     10491.226    1795.661
     3649.806     10548.101    1753.733      3681.930     10568.341    1786.830
     3786.460     10625.481    1751.984      3816.488     10646.151    1785.108
     3923.910     10703.114    1755.840      3955.502     10726.618    1793.829
     4065.776     10784.085    1769.451      4096.094     10808.194    1810.021
     4201.467     10860.182    1780.210      4236.224     10889.359    1829.904
     4346.336     10944.179    1808.577      4382.518     10975.792    1860.071
     4496.504     11033.407    1844.218      4533.229     11066.314    1894.231
     4625.394     11103.745    1846.641      4667.756     11142.202    1903.216
     4767.345     11185.979    1865.481      4810.788     11225.591    1922.860
     4919.343     11277.472    1899.294      4960.798     11315.281    1951.010
     5063.197     11361.560    1918.859      5100.984     11396.021    1963.038
     5198.026     11437.428    1920.306      5232.725     11469.104    1961.202
     5336.486     11516.604    1919.382      5365.962     11543.572    1956.640
     5476.930     11597.587    1919.568      5501.874     11620.493    1954.366
     5619.039     11680.098    1924.267      5641.743     11701.050    1958.096
     5759.676     11761.248    1924.042      5780.100     11780.221    1957.892
      238.355      8395.309    1727.665       238.721      8394.672    1765.392
      378.286      8476.359    1728.116       379.444      8475.861    1760.341
      518.076      8557.377    1729.759       520.583      8556.877    1764.633
      657.788      8638.364    1732.023       661.864      8637.949    1765.752
      797.469      8719.335    1734.742       803.433      8719.036    1766.971
      936.071      8800.324    1734.295       943.586      8800.174    1762.869
     1074.951      8881.271    1737.369      1085.513      8881.264    1767.427
     1215.046      8962.212    1742.737      1227.805      8962.383    1771.330
     1355.100      9043.164    1744.781      1372.204      9043.588    1776.144
     1494.735      9124.099    1743.706      1517.848      9124.916    1779.864
     1634.156      9205.013    1742.434      1661.480      9206.267    1780.637
     1771.407      9285.784    1739.631      1802.927      9287.576    1779.792
     1905.243      9366.246    1733.817      1937.705      9368.482    1771.664
     2044.159      9446.944    1734.384      2078.456      9449.774    1771.151
     2185.084      9527.767    1737.321      2219.089      9531.132    1770.758
     2323.607      9608.281    1737.671      2360.468      9612.681    1770.807
     2461.781      9688.595    1737.771      2503.499      9694.643    1772.608
     2600.106      9768.716    1738.811      2652.966      9778.047    1781.228
     2743.035      9849.562    1743.707      2795.034      9860.703    1784.209
     2885.217      9930.294    1747.147      2933.548      9942.796    1783.178
     3025.947     10010.590    1748.750      3071.617     10024.767    1782.850
     3166.980     10090.864    1750.207      3212.252     10107.560    1786.487
     3311.245     10172.458    1754.212      3363.742     10195.140    1800.526
     3453.566     10253.485    1756.360      3495.801     10274.508    1796.323
     3591.952     10332.514    1753.855      3633.008     10355.636    1792.812
     3732.809     10412.849    1754.208      3772.058     10437.467    1792.168
     3868.041     10489.427    1752.881      3906.025     10515.584    1792.025
     4007.587     10568.715    1760.600      4045.614     10597.119    1803.844
     4146.598     10647.606    1772.743      4177.923     10672.719    1812.807
     4290.166     10730.423    1796.458      4324.437     10759.458    1843.826
     4435.251     10815.021    1826.131      4468.771     10844.493    1873.158
     4571.886     10892.370    1843.810      4604.342     10921.529    1887.926
     4707.248     10968.577    1855.983      4741.864     10999.967    1901.516
     4857.566     11058.447    1885.826      4892.340     11090.007    1929.725
     5006.259     11146.861    1913.109      5040.901     11178.215    1952.554
     5136.812     11218.891    1915.762      5171.006     11249.739    1951.712
     5272.898     11295.963    1918.314      5305.806     11325.583    1953.279
     5416.434     11379.750    1923.108      5442.327     11403.037    1953.226
     5555.851     11459.828    1921.945      5578.782     11480.471    1951.670
     5696.860     11541.330    1924.518      5720.152     11562.353    1956.607
     5837.766     11622.726    1924.371      5858.631     11641.650    1956.356
      317.856      8257.609    1730.436       318.196      8257.016    1761.545
      457.987      8338.626    1733.431       459.239      8338.086    1765.018
      597.924      8419.668    1734.007       600.625      8419.132    1768.369
      737.022      8500.753    1729.590       741.278      8500.326    1761.506
      875.783      8581.758    1728.482       882.345      8581.438    1760.048
     1014.899      8662.702    1732.023      1023.384      8662.540    1760.392
     1153.843      8743.638    1735.867      1165.945      8743.633    1766.187
     1292.006      8824.552    1737.460      1305.125      8824.719    1763.429
     1432.033      8905.480    1740.509      1453.500      8905.979    1775.181
     1571.850      8986.404    1740.718      1596.316      8987.203    1774.341
     1712.769      9067.367    1741.832      1740.406      9068.524    1775.890
     1852.460      9148.276    1742.133      1882.766      9149.838    1776.621
     1989.014      9228.977    1739.581      2022.646      9231.063    1775.176
     2124.113      9309.475    1735.940      2158.333      9312.009    1769.846
     2262.512      9390.099    1736.291      2298.172      9393.262    1768.974
     2401.722      9470.701    1736.917      2438.789      9474.670    1767.762
     2540.256      9551.098    1736.434      2584.061      9556.818    1769.498
     2680.500      9631.579    1737.690      2734.695      9640.250    1776.146
     2820.923      9711.970    1738.943      2886.465      9724.806    1783.912
     2957.690      9791.343    1736.966      3016.222      9805.330    1776.231
     3096.221      9870.663    1735.553      3148.893      9885.954    1771.731
     3238.776      9950.914    1736.733      3285.538      9967.275    1771.873
     3383.024     10031.896    1739.907      3430.883     10051.830    1779.939
     3530.562     10114.849    1746.900      3578.425     10138.183    1789.108
     3673.082     10195.957    1750.059      3720.849     10222.685    1792.006
     3813.445     10276.023    1752.506      3857.264     10303.630    1791.431
     3949.095     10352.876    1753.879      3992.661     10383.237    1794.950
     4090.483     10433.585    1765.037      4129.111     10462.993    1805.731
     4227.667     10511.081    1777.402      4256.903     10535.157    1812.316
     4379.789     10601.532    1813.964      4419.188     10635.916    1864.667
     4522.190     10684.228    1841.354      4558.462     10716.792    1890.539
     4649.016     10752.799    1847.193      4686.264     10786.683    1897.017
     4791.778     10835.803    1871.112      4825.548     10866.559    1913.968
     4947.783     10930.854    1906.927      4977.933     10958.182    1942.140
     5087.189     11010.799    1920.301      5120.110     11040.451    1954.117
     5212.278     11077.965    1916.493      5246.874     11108.928    1949.122
     5347.222     11154.090    1917.115      5380.363     11183.579    1949.092
     5493.471     11240.283    1923.739      5521.527     11265.136    1954.137
     5631.616     11319.278    1920.578      5660.101     11344.450    1955.405
     5774.562     11402.505    1924.880      5801.319     11426.145    1959.447
     5915.733     11484.143    1924.640      5939.770     11505.433    1959.262
      397.300      8120.008    1726.850       397.603      8119.479    1751.785
      537.534      8200.956    1733.206       538.734      8200.442    1760.699
      677.535      8282.005    1733.790       679.934      8281.536    1761.585
      816.931      8363.073    1731.374       821.290      8362.646    1760.777
      955.107      8444.128    1727.455       961.937      8443.804    1756.681
     1093.991      8525.076    1730.809      1103.037      8524.908    1757.551
     1233.107      8606.009    1735.442      1245.922      8606.000    1763.963
     1370.931      8686.922    1736.759      1387.396      8687.115    1765.822
     1508.333      8767.795    1736.144      1534.041      8768.343    1773.149
     1646.168      8848.644    1734.738      1672.622      8849.424    1767.117
     1786.049      8929.529    1735.286      1816.964      8930.690    1769.234
     1930.413      9010.611    1740.893      1967.165      9012.296    1778.273
     2071.080      9091.554    1742.760      2108.864      9093.630    1778.670
     2207.110      9172.196    1740.253      2245.849      9174.730    1774.771
     2344.810      9252.853    1739.354      2386.516      9256.113    1773.936
     2484.156      9333.562    1738.923      2525.298      9337.441    1769.744
     2619.164      9413.687    1734.365      2676.045      9420.249    1772.359
     2761.787      9494.545    1735.480      2827.618      9503.919    1776.013
     2893.427      9573.502    1730.125      2964.936      9586.075    1772.470
     3028.516      9652.331    1726.245      3099.435      9667.760    1768.308
     3170.476      9732.191    1725.715      3229.718      9748.109    1762.555
     3311.076      9811.426    1724.309      3363.873      9828.824    1760.658
     3454.168      9891.320    1725.569      3510.983      9914.030    1769.317
     3603.962      9974.525    1734.312      3654.208      9998.496    1774.739
     3748.171     10055.979    1740.620      3799.955     10084.879    1782.045
     3894.876     10139.643    1750.554      3947.990     10173.565    1793.376
     4033.896     10218.875    1757.043      4079.252     10251.340    1795.795
     4175.321     10299.907    1770.015      4214.462     10330.880    1808.110
     4312.286     10377.380    1784.716      4351.159     10410.951    1828.764
     4450.107     10455.519    1805.978      4506.843     10507.672    1874.408
     4599.184     10544.601    1841.538      4639.328     10582.285    1894.307
     4730.251     10616.831    1854.801      4766.838     10651.179    1902.763
     4882.807     10709.083    1893.003      4915.702     10739.496    1933.026
     5030.406     10796.435    1917.436      5063.878     10826.894    1953.397
     5156.378     10864.201    1915.908      5195.341     10899.227    1952.281
     5284.153     10933.882    1914.551      5329.242     10974.002    1953.390
     5428.083     11018.041    1922.217      5468.933     11054.057    1959.021
     5570.244     11100.620    1924.074      5604.013     11130.148    1959.113
     5709.622     11180.762    1921.753      5741.569     11208.519    1959.599
     5853.000     11264.358    1925.996      5882.617     11289.997    1962.685
     5994.458     11346.259    1925.754      6021.066     11369.285    1962.548
      476.683      7982.515    1718.178       476.945      7982.056    1738.243
      616.799      8063.405    1726.053       617.876      8062.953    1748.643
      756.631      8144.440    1727.102       759.062      8143.976    1752.796
      896.168      8225.460    1727.843       900.123      8225.082    1751.947
     1034.709      8306.487    1727.121      1041.800      8306.159    1754.406
     1173.393      8387.444    1730.345      1184.837      8387.237    1760.707
     1312.129      8468.381    1734.477      1326.541      8468.367    1763.582
     1448.879      8549.287    1734.423      1467.418      8549.481    1764.162
     1586.431      8630.163    1734.554      1610.907      8630.628    1766.581
     1724.117      8711.015    1733.336      1754.804      8711.818    1767.567
     1860.636      8791.796    1730.643      1896.933      8792.990    1766.941
     2003.592      8872.775    1735.036      2046.049      8874.471    1774.133
     2148.356      8953.868    1740.736      2190.473      8955.877    1776.652
     2291.202      9034.919    1743.652      2337.617      9037.547    1780.217
     2433.171      9115.958    1744.572      2476.482      9118.877    1776.044
     2572.421      9196.822    1741.761      2621.080      9200.768    1773.743
     2703.300      9276.820    1732.817      2765.861      9283.057    1769.637
     2840.965      9357.192    1729.531      2907.296      9365.449    1764.772
     2969.243      9435.857    1722.546      3042.309      9447.173    1759.446
     3098.932      9513.650    1715.626      3182.302      9529.886    1759.273
     3244.435      9593.898    1716.139      3315.702      9611.403    1756.050
     3385.539      9672.934    1714.367      3450.387      9692.862    1754.530
     3529.088      9752.512    1715.115      3584.557      9773.626    1753.551
     3670.791      9831.301    1717.917      3732.866      9860.142    1763.105
     3823.706      9916.245    1731.839      3883.236      9949.379    1775.106
     3970.493      9999.463    1742.929      4022.714     10033.489    1781.154
     4105.716     10075.331    1747.515      4160.970     10116.525    1790.490
     4248.964     10157.080    1761.837      4304.346     10203.622    1812.249
     4396.903     10244.013    1788.181      4437.721     10281.885    1833.504
     4523.223     10311.110    1797.100      4595.810     10382.887    1884.815
     4685.139     10413.836    1849.518      4723.978     10452.947    1899.092
     4824.986     10494.281    1875.350      4862.300     10531.222    1923.076
     4975.217     10584.274    1910.929      5010.069     10617.461    1951.716
     5105.757     10655.477    1917.042      5143.174     10689.899    1954.735
     5229.815     10721.445    1914.736      5274.859     10761.968    1953.736
     5359.446     10792.883    1914.836      5410.619     10838.213    1956.173
     5504.122     10877.739    1922.083      5557.334     10924.285    1968.224
     5646.711     10960.729    1923.622      5685.881     10994.588    1963.554
     5788.017     11042.592    1922.724      5822.044     11071.702    1962.789
     5932.945     11127.505    1928.550      5964.475     11154.277    1966.778
     6074.521     11209.520    1928.242      6102.866     11233.499    1966.628
      556.126      7844.915    1714.284       556.382      7844.469    1733.030
      696.038      7925.858    1718.839       696.981      7925.474    1737.210
      835.632      8006.889    1719.885       838.164      8006.421    1744.417
      974.682      8087.910    1720.311       980.014      8087.419    1750.152
     1114.138      8168.851    1725.698      1123.927      8168.415    1760.248
     1254.338      8249.784    1733.309      1268.659      8249.532    1768.057
     1391.220      8330.754    1733.512      1408.799      8330.728    1766.420
     1528.448      8411.671    1734.412      1551.097      8411.874    1767.995
     1665.634      8492.559    1733.917      1694.360      8493.030    1768.735
     1801.828      8573.400    1731.115      1836.905      8574.183    1767.591
     1938.425      8654.208    1728.745      1978.081      8655.312    1765.801
     2078.714      8735.089    1731.023      2125.000      8736.645    1770.394
     2220.896      8816.031    1734.492      2271.295      8818.051    1773.500
     2368.445      8897.241    1739.847      2416.601      8899.529    1773.437
     2515.826      8978.553    1742.100      2561.942      8981.152    1771.254
     2663.539      9060.046    1741.767      2714.729      9063.505    1771.299
     2790.614      9140.082    1729.068      2853.945      9145.351    1762.403
     2923.162      9220.179    1722.335      3000.213      9228.333    1758.266
     3046.113      9298.507    1713.683      3146.280      9311.953    1757.976
     3180.725      9377.348    1709.574      3275.175      9393.562    1754.802
     3323.707      9457.087    1709.494      3413.214      9476.872    1755.060
     3466.469      9536.588    1709.090      3542.161      9557.957    1751.017
     3603.587      9613.876    1705.964      3676.312      9639.850    1750.925
     3743.264      9691.163    1707.799      3813.022      9722.287    1753.541
     3888.389      9770.675    1716.404      3956.573      9808.152    1761.633
     4035.200      9851.953    1727.388      4087.070      9886.355    1762.545
     4172.493      9927.179    1733.152      4235.628      9976.566    1779.418
     4320.016     10010.923    1748.922      4376.400     10062.094    1798.704
     4459.018     10088.289    1762.420      4507.250     10137.530    1816.612
     4590.576     10158.472    1774.610      4683.981     10261.329    1893.989
     4714.432     10221.596    1780.634      4823.209     10342.773    1918.460
     4924.568     10379.279    1895.983      4964.936     10422.330    1947.346
     5062.629     10455.773    1917.235      5098.181     10491.153    1958.379
     5182.549     10515.863    1914.034      5226.410     10557.009    1956.817
     5307.736     10582.708    1914.406      5354.545     10624.979    1953.052
     5442.179     10658.489    1918.696      5490.037     10700.682    1955.969
     5584.711     10741.451    1924.456      5631.882     10782.338    1964.747
     5726.453     10823.705    1925.735      5766.062     10857.519    1965.897
     5871.083     10908.384    1928.688      5906.516     10938.215    1970.538
     6015.461     10992.771    1933.786      6048.687     11020.436    1973.581
     6157.104     11074.832    1933.511      6186.883     11099.454    1973.500
      635.602      7707.260    1712.827       635.881      7706.772    1733.424
      775.275      7788.304    1712.521       776.435      7787.850    1734.020
      914.783      7869.301    1715.151       917.766      7868.774    1742.227
     1053.936      7950.287    1717.834      1059.807      7949.770    1748.571
     1193.186      8031.233    1723.024      1204.185      8030.763    1759.410
     1331.170      8112.199    1726.215      1346.695      8111.931    1761.168
     1470.003      8193.130    1731.506      1491.226      8193.082    1768.062
     1609.210      8274.067    1735.318      1635.569      8274.254    1771.581
     1749.464      8355.025    1737.904      1780.713      8355.440    1773.449
     1880.950      8435.835    1729.871      1919.274      8436.518    1767.590
     2017.014      8516.671    1727.158      2065.662      8517.741    1770.356
     2155.822      8597.531    1728.336      2204.408      8598.822    1767.205
     2296.212      8678.408    1729.986      2349.526      8680.104    1768.123
     2441.960      8759.470    1732.366      2497.127      8761.565    1767.030
     2597.186      8841.025    1736.273      2647.875      8843.319    1764.765
     2741.279      8922.239    1730.847      2801.503      8925.495    1762.021
     2878.925      9003.158    1721.956      2950.371      9007.833    1756.216
     3003.965      9083.019    1711.001      3090.434      9090.182    1748.319
     3131.069      9162.179    1704.103      3232.815      9173.602    1749.664
     3269.223      9241.910    1703.908      3370.023      9256.938    1750.705
     3408.030      9321.300    1704.039      3498.728      9339.050    1747.198
     3544.493      9399.511    1702.092      3629.388      9421.141    1744.818
     3685.705      9478.205    1702.844      3758.127      9501.978    1742.877
     3827.479      9556.669    1706.658      3905.871      9589.376    1752.984
     3966.323      9632.922    1711.169      4041.276      9672.723    1757.077
     4107.792      9709.615    1717.581      4168.557      9750.235    1756.951
     4251.439      9787.996    1726.363      4309.037      9835.180    1768.062
     4395.502      9867.624    1737.079      4452.835      9924.045    1788.440
     4534.523      9943.140    1746.206      4576.103      9991.014    1795.479
     4668.626     10011.837    1754.423      4705.427     10061.264    1808.659
     4792.432     10073.632    1762.293      4906.307     10225.262    1918.180
     5007.161     10249.682    1890.807      5048.972     10299.125    1945.987
     5141.609     10319.546    1908.878      5184.452     10364.350    1959.266
     5265.778     10382.354    1912.105      5309.638     10424.388    1954.536
     5394.539     10452.016    1916.958      5438.295     10491.661    1952.309
     5528.686     10527.399    1922.061      5576.108     10568.896    1958.481
     5663.141     10603.336    1922.762      5715.018     10647.736    1966.954
     5811.935     10691.535    1932.363      5854.532     10727.328    1975.219
     5954.891     10774.702    1935.257      5991.434     10804.902    1977.673
     6099.143     10858.888    1939.475      6133.659     10887.019    1980.045