NOECHO

-- =============================================================================
-- 
-- Exported from Reek_base_sim
-- 
-- Exported by user asny from RMS11 at 2020-02-19 15:59:30
-- 
-- =============================================================================

MAPUNITS
'METRES  ' /

MAPAXES
456514.859 5939174.727
456514.859 5927115.548
467218.230 5927115.548 /

GRIDUNIT
'METRES  ' '        ' /

SPECGRID
  40  64  14   1  F  /

GDORIENT
INC INC INC DOWN RIGHT /

COORD
        0.000      8808.164    1729.627         0.255      8807.655    1763.517
      140.015      8889.198    1733.228       141.129      8888.706    1770.327
      279.924      8970.221    1736.726       282.334      8969.722    1778.340
      419.480      9051.251    1736.549       423.638      9050.802    1779.786
      558.805      9132.250    1737.981       565.304      9131.893    1783.644
      698.077      9213.218    1742.548       707.340      9213.003    1789.642
      837.574      9294.172    1748.529       849.685      9294.143    1795.178
      977.408      9375.125    1753.202       992.206      9375.316    1796.989
     1116.756      9456.066    1753.697      1134.828      9456.528    1797.281
     1254.476      9536.931    1749.303      1276.246      9537.743    1795.606
     1391.403      9617.700    1744.029      1416.956      9618.951    1793.631
     1529.232      9698.441    1742.081      1561.115      9700.393    1798.533
     1667.347      9779.136    1741.026      1704.099      9781.869    1800.447
     1805.014      9859.716    1738.288      1843.889      9863.177    1794.310
     1941.455      9940.056    1735.338      1983.443      9944.505    1790.580
     2080.286     10020.502    1739.186      2125.057     10026.145    1792.312
     2219.335     10100.840    1744.819      2267.863     10108.124    1796.994
     2358.258     10180.989    1750.513      2409.248     10190.111    1801.179
     2498.429     10261.181    1757.213      2551.768     10272.554    1806.495
     2638.789     10341.239    1763.744      2693.998     10355.258    1810.716
     2777.136     10420.465    1766.935      2832.308     10437.137    1810.952
     2917.705     10500.038    1768.936      2973.756     10520.072    1812.869
     3060.204     10580.248    1769.454      3114.764     10603.040    1812.980
     3201.276     10659.934    1767.378      3255.041     10685.750    1812.984
     3339.587     10738.221    1763.930      3394.020     10767.688    1814.656
     3478.428     10816.655    1763.040      3535.989     10851.170    1821.566
     3618.483     10895.811    1764.889      3676.512     10933.790    1827.226
     3757.871     10974.560    1767.774      3813.734     11014.004    1831.257
     3899.183     11054.792    1773.783      3951.424     11094.139    1839.360
     4040.764     11135.512    1784.592      4088.055     11173.030    1849.681
     4185.083     11218.777    1809.091      4228.897     11254.968    1867.648
     4329.631     11302.636    1832.972      4374.127     11340.504    1889.472
     4468.780     11382.118    1846.086      4515.944     11423.095    1905.615
     4614.411     11467.393    1867.106      4659.435     11507.048    1923.310
     4764.619     11556.903    1893.614      4802.710     11590.779    1937.680
     4910.146     11642.390    1910.046      4941.037     11670.092    1943.335
     5047.733     11720.784    1913.478      5075.862     11746.210    1944.484
     5184.840     11798.710    1913.193      5210.877     11822.431    1945.560
     5325.219     11879.600    1916.431      5349.565     11901.959    1951.166
     5465.914     11960.783    1920.878      5487.416     11980.704    1955.447
     5606.276     12041.658    1920.625      5625.001     12059.179    1955.252
       79.458      8670.516    1729.692        79.740      8670.021    1763.598
      219.500      8751.556    1733.269       220.631      8751.073    1770.382
      359.436      8832.580    1736.753       361.889      8832.086    1778.339
      499.019      8913.611    1736.625       503.277      8913.168    1779.850
      638.390      8994.608    1738.057       645.064      8994.264    1783.678
      777.775      9075.578    1742.615       787.243      9075.384    1789.669
      917.396      9156.535    1748.578       929.832      9156.533    1795.195
     1057.445      9237.499    1753.254      1072.574      9237.718    1796.982
     1197.070      9318.456    1753.718      1215.335      9318.942    1797.266
     1335.059      9399.341    1749.346      1356.572      9400.155    1795.576
     1472.062      9480.129    1744.148      1497.221      9481.363    1793.594
     1609.961      9560.897    1742.204      1642.104      9562.847    1798.539
     1748.493      9641.649    1741.089      1785.952      9644.392    1800.418
     1886.784      9722.325    1738.330      1925.515      9725.701    1794.093
     2024.127      9802.820    1735.608      2065.194      9807.065    1790.485
     2163.815      9883.459    1739.451      2207.158      9888.776    1792.268
     2303.412      9964.001    1745.097      2350.241      9970.837    1797.028
     2442.779     10044.392    1750.815      2491.644     10052.895    1801.164
     2583.671     10124.934    1757.644      2634.598     10135.507    1806.516
     2724.639     10205.398    1764.102      2777.793     10218.571    1810.711
     2863.759     10285.189    1767.234      2916.551     10300.810    1810.917
     3005.045     10365.407    1769.222      3057.715     10383.917    1812.918
     3148.076     10446.287    1769.551      3199.126     10467.343    1812.983
     3289.627     10526.707    1767.349      3339.836     10550.600    1813.001
     3427.907     10605.516    1763.922      3478.426     10632.691    1814.999
     3566.336     10684.220    1763.212      3618.729     10715.493    1821.879
     3706.452     10763.882    1765.112      3759.112     10798.238    1827.478
     3845.343     10842.724    1768.109      3896.007     10878.431    1831.579
     3984.374     10921.626    1774.162      4031.917     10957.399    1839.540
     4123.968     11001.017    1785.160      4166.925     11035.065    1849.827
     4267.792     11084.014    1809.796      4306.342     11115.812    1867.431
     4410.737     11166.599    1833.169      4449.623     11199.626    1888.773
     4548.823     11245.197    1846.164      4590.323     11281.153    1905.141
     4693.121     11329.299    1866.963      4732.428     11363.787    1922.375
     4841.604     11417.237    1893.137      4875.457     11447.194    1937.050
     4986.823     11502.394    1909.774      5015.391     11527.860    1943.186
     5125.810     11582.034    1913.485      5152.477     11605.971    1944.548
     5263.821     11660.784    1913.228      5289.060     11683.597    1945.647
     5404.805     11742.216    1916.469      5428.583     11763.870    1951.206
     5545.689     11823.565    1920.904      5566.994     11843.125    1955.491
     5685.826     11904.234    1920.650      5704.642     11921.671    1955.295
      158.875      8532.962    1725.521       159.181      8532.429    1758.336
      298.863      8613.967    1730.554       300.056      8613.462    1766.101
      438.743      8694.976    1734.475       441.615      8694.417    1778.252
      578.045      8776.013    1733.128       582.710      8775.560    1775.636
      717.485      8856.980    1736.371       725.180      8856.629    1783.352
      856.860      8937.936    1740.857       867.545      8937.770    1788.333
      996.720      9018.888    1747.251      1010.711      9018.939    1794.051
     1136.496      9099.846    1750.600      1151.366      9100.104    1789.246
     1276.818      9180.820    1752.578      1295.132      9181.343    1792.392
     1414.265      9261.689    1747.648      1435.935      9262.528    1790.697
     1550.662      9342.454    1742.088      1577.068      9343.741    1789.602
     1688.324      9423.213    1740.065      1724.061      9425.330    1796.808
     1827.095      9503.992    1739.031      1869.272      9506.965    1799.464
     1965.493      9584.695    1736.371      2003.922      9587.887    1787.487
     2100.364      9664.981    1730.469      2146.522      9669.497    1788.271
     2242.355      9745.870    1736.904      2288.986      9751.261    1790.387
     2382.050      9826.455    1742.488      2432.655      9833.403    1795.253
     2520.886      9906.795    1747.528      2572.643      9915.271    1797.727
     2661.289      9987.243    1753.386      2713.863      9997.541    1800.949
     2803.548     10067.975    1759.693      2860.421     10081.341    1806.885
     2941.794     10147.535    1760.970      2994.233     10162.361    1802.828
     3084.550     10228.160    1763.267      3139.167     10246.672    1807.924
     3227.777     10309.061    1763.320      3276.005     10328.437    1804.381
     3369.890     10389.706    1761.656      3418.699     10412.528    1805.878
     3506.455     10467.633    1756.888      3558.269     10495.203    1808.769
     3645.826     10546.827    1757.523      3698.917     10578.327    1816.365
     3785.863     10626.434    1760.086      3837.476     10660.031    1820.578
     3923.465     10704.376    1762.479      3973.600     10739.727    1824.907
     4063.395     10783.914    1772.024      4111.330     10820.059    1837.442
     4197.801     10859.216    1778.027      4241.905     10894.241    1843.697
     4347.727     10947.136    1811.892      4383.354     10976.531    1865.626
     4494.002     11032.592    1840.868      4531.727     11064.581    1896.044
     4627.351     11107.185    1848.316      4667.921     11142.205    1907.619
     4771.085     11190.776    1869.417      4809.078     11223.912    1924.579
     4922.717     11281.407    1900.117      4952.775     11307.777    1939.904
     5068.071     11366.626    1915.642      5091.006     11386.841    1942.612
     5202.112     11441.885    1912.266      5226.251     11463.259    1940.140
     5337.663     11518.445    1908.404      5364.268     11542.121    1941.401
     5480.982     11601.918    1913.656      5506.531     11624.780    1949.151
     5622.536     11683.835    1918.440      5645.967     11704.940    1954.011
     5762.855     11764.646    1918.184      5783.713     11783.585    1953.789
      238.320      8395.359    1725.024       238.670      8394.748    1759.466
      378.333      8476.334    1731.139       379.750      8475.730    1770.009
      518.119      8557.359    1733.388       521.258      8556.758    1776.862
      657.595      8638.366    1734.404       663.031      8637.861    1779.022
      796.861      8719.341    1736.301       803.964      8719.046    1774.976
      936.155      8800.293    1739.990       947.093      8800.162    1782.888
     1075.565      8881.240    1744.038      1088.761      8881.324    1783.004
     1215.107      8962.188    1746.437      1231.226      8962.499    1783.608
     1355.883      9043.169    1749.340      1373.645      9043.695    1783.855
     1495.466      9124.120    1749.452      1515.962      9124.915    1785.900
     1635.874      9205.102    1750.838      1666.302      9206.557    1799.406
     1770.014      9285.730    1742.912      1807.371      9287.867    1795.846
     1905.143      9366.306    1736.858      1943.816      9368.907    1786.690
     2040.546      9446.785    1730.818      2079.369      9449.835    1777.988
     2182.320      9527.705    1733.640      2233.444      9532.403    1792.667
     2324.328      9608.662    1739.873      2371.461      9613.760    1789.088
     2462.093      9689.098    1742.747      2512.733      9695.593    1790.350
     2597.917      9769.057    1744.342      2653.197      9777.515    1792.560
     2742.190      9850.192    1752.369      2797.553      9860.353    1797.410
     2881.735      9930.396    1754.609      2940.645      9943.446    1799.182
     3021.750     10010.428    1755.625      3079.199     10025.875    1798.613
     3166.703     10091.760    1758.421      3229.706     10112.300    1807.866
     3308.982     10172.395    1757.537      3360.759     10192.649    1800.561
     3448.643     10251.960    1754.306      3500.825     10275.992    1800.023
     3587.095     10330.795    1752.226      3638.324     10357.897    1801.248
     3730.968     10412.691    1758.668      3790.713     10448.174    1821.359
     3868.393     10490.912    1760.235      3919.834     10524.575    1817.374
     4004.392     10567.881    1762.818      4057.485     10605.625    1825.899
     4142.857     10646.396    1772.952      4192.109     10683.943    1836.938
     4286.594     10729.208    1794.924      4336.466     10769.229    1865.254
     4435.644     10816.845    1828.099      4476.350     10850.649    1887.153
     4574.469     10896.220    1846.865      4615.463     10931.085    1905.817
     4712.254     10974.671    1862.252      4748.890     11006.296    1915.334
     4860.029     11061.820    1890.174      4891.632     11089.297    1935.552
     5009.514     11150.542    1916.191      5033.982     11171.883    1947.632
     5141.488     11224.012    1913.530      5163.390     11243.154    1938.522
     5275.655     11299.398    1909.468      5296.218     11317.400    1932.346
     5416.283     11380.447    1910.654      5442.549     11403.492    1941.889
     5559.467     11463.756    1915.090      5586.661     11487.688    1951.006
     5701.086     11545.704    1919.383      5726.179     11567.886    1955.116
     5841.533     11626.620    1919.145      5863.969     11646.579    1954.945
      317.827      8257.648    1729.844       318.208      8256.984    1764.707
      457.895      8338.659    1733.654       459.517      8337.971    1774.692
      597.597      8419.720    1733.353       600.954      8419.089    1775.897
      736.543      8500.773    1730.433       742.251      8500.264    1772.896
      875.577      8581.728    1732.439       884.249      8581.397    1774.730
     1014.913      8662.656    1736.758      1027.727      8662.538    1781.214
     1154.256      8743.592    1740.225      1168.416      8743.710    1776.918
     1292.517      8824.506    1739.633      1310.607      8824.876    1776.283
     1431.504      8905.417    1739.611      1451.108      8906.005    1773.083
     1573.473      8986.432    1744.281      1596.042      8987.295    1779.222
     1713.113      9067.369    1745.206      1743.104      9068.758    1787.251
     1850.949      9148.199    1743.528      1885.677      9150.097    1787.215
     1990.465      9229.096    1743.435      2032.759      9231.785    1792.253
     2126.526      9309.724    1738.704      2166.014      9312.632    1782.051
     2262.330      9390.230    1735.474      2311.649      9394.453    1786.639
     2402.053      9470.984    1738.810      2449.834      9475.779    1782.892
     2539.677      9551.431    1740.577      2600.626      9558.669    1790.693
     2682.443      9632.430    1746.560      2750.542      9642.073    1798.207
     2823.600      9713.184    1750.157      2892.879      9724.984    1799.169
     2956.124      9792.056    1746.075      3020.126      9805.308    1789.097
     3095.728      9871.773    1745.091      3160.196      9888.149    1789.343
     3241.194      9952.875    1746.550      3304.064      9972.505    1792.986
     3385.188     10033.763    1746.368      3439.935     10054.586    1789.544
     3530.312     10115.508    1748.179      3580.848     10138.472    1790.053
     3668.796     10194.443    1747.500      3723.673     10223.451    1797.003
     3813.622     10277.011    1756.293      3865.136     10307.852    1806.893
     3948.808     10353.912    1757.745      3993.661     10383.651    1804.046
     4084.034     10430.328    1761.977      4131.477     10464.644    1814.518
     4225.357     10511.045    1778.124      4271.161     10546.756    1833.101
     4381.290     10604.153    1817.669      4434.670     10648.023    1885.539
     4525.631     10688.459    1845.664      4566.132     10722.685    1900.664
     4651.268     10756.719    1848.292      4696.380     10795.525    1910.936
     4794.056     10839.511    1873.146      4832.695     10873.035    1927.102
     4951.950     10935.474    1915.092      4980.189     10960.037    1953.274
     5088.938     11013.262    1922.540      5115.870     11036.691    1955.063
     5217.821     11084.028    1915.665      5240.835     11104.027    1940.530
     5352.182     11159.602    1911.131      5377.030     11181.165    1937.424
     5497.893     11245.053    1916.834      5521.083     11265.153    1943.365
     5638.629     11326.202    1917.746      5667.212     11350.977    1954.070
     5780.265     11408.144    1921.411      5807.236     11431.562    1957.899
     5920.862     11489.188    1921.180      5945.003     11510.235    1957.740
      397.273      8120.044    1727.339       397.699      8119.301    1762.939
      537.242      8201.072    1729.714       538.822      8200.412    1766.459
      677.168      8282.063    1733.529       680.978      8281.365    1777.954
      815.963      8363.136    1729.428       822.725      8362.557    1775.381
      954.885      8444.091    1731.014       965.412      8443.719    1777.553
     1093.966      8525.019    1734.238      1108.774      8524.910    1780.342
     1233.622      8605.952    1737.790      1249.986      8606.110    1775.244
     1371.721      8686.864    1736.465      1392.032      8687.291    1772.735
     1510.464      8767.771    1735.874      1533.318      8768.451    1770.253
     1647.917      8848.616    1733.952      1671.896      8849.509    1766.488
     1788.394      8929.559    1736.880      1822.748      8931.082    1779.474
     1927.771      9010.450    1738.285      1968.658      9012.561    1784.261
     2068.749      9091.423    1740.918      2112.706      9094.036    1786.424
     2209.729      9172.407    1742.513      2256.469      9175.602    1788.254
     2348.160      9253.206    1742.393      2402.170      9257.468    1791.490
     2485.173      9333.830    1741.314      2541.962      9339.051    1786.582
     2620.620      9414.169    1739.348      2688.875      9421.571    1787.747
     2763.517      9495.237    1743.247      2829.613      9503.775    1786.116
     2897.437      9574.941    1740.893      2971.310      9586.445    1785.583
     3031.855      9654.127    1737.424      3103.730      9667.878    1779.765
     3168.504      9732.995    1733.139      3242.003      9750.497    1778.721
     3313.750      9813.545    1732.622      3373.105      9831.190    1773.119
     3453.928      9892.436    1728.739      3507.007      9911.990    1767.489
     3605.106      9975.917    1735.106      3661.895     10001.353    1778.921
     3747.236     10056.318    1738.372      3802.835     10085.751    1785.387
     3894.431     10140.198    1750.527      3942.681     10169.479    1794.833
     4031.122     10218.120    1755.467      4076.774     10249.060    1799.092
     4167.980     10295.810    1763.867      4214.449     10330.387    1811.880
     4309.804     10377.211    1782.777      4359.840     10417.549    1839.418
     4453.090     10460.324    1808.568      4523.221     10520.194    1890.523
     4604.462     10550.969    1845.266      4644.181     10585.778    1896.818
     4734.356     10622.669    1856.450      4772.867     10656.774    1908.377
     4884.128     10711.722    1893.372      4922.960     10745.958    1945.187
     5032.776     10799.609    1922.043      5067.616     10830.105    1965.494
     5158.961     10867.864    1916.912      5194.904     10899.153    1957.035
     5289.770     10940.284    1913.008      5322.786     10968.888    1946.416
     5431.512     11022.249    1915.456      5460.407     11047.167    1944.638
     5570.995     11102.303    1913.194      5600.592     11127.709    1946.178
     5713.563     11185.028    1914.971      5744.895     11211.823    1954.009
     5857.973     11269.323    1921.422      5886.977     11294.091    1959.317
     5998.864     11350.615    1921.103      6024.868     11372.849    1959.118
      476.683      7982.504    1720.998       477.221      7981.563    1762.373
      616.457      8063.536    1722.240       618.282      8062.791    1761.156
      756.488      8144.450    1729.734       760.235      8143.787    1770.031
      895.876      8225.458    1730.462       902.504      8224.917    1771.841
     1034.621      8306.442    1730.454      1045.891      8306.071    1776.145
     1172.972      8387.383    1731.079      1188.104      8387.297    1774.133
     1312.470      8468.310    1733.822      1331.750      8468.512    1773.417
     1449.872      8549.203    1731.333      1469.015      8549.609    1761.967
     1588.045      8630.089    1730.092      1611.533      8630.772    1761.839
     1725.984      8710.949    1729.166      1758.363      8712.104    1768.553
     1863.669      8791.774    1728.974      1903.167      8793.426    1773.115
     2002.353      8872.615    1730.494      2045.801      8874.707    1774.953
     2140.238      8953.389    1731.588      2189.909      8956.118    1778.130
     2286.774      9034.664    1739.517      2343.198      9038.198    1788.264
     2432.595      9115.993    1744.724      2489.141      9120.046    1788.903
     2572.441      9196.955    1743.186      2631.738      9201.868    1783.869
     2708.682      9277.573    1739.131      2775.744      9284.098    1780.254
     2840.167      9357.505    1734.134      2916.202      9366.293    1776.019
     2969.350      9436.629    1729.043      3057.422      9448.905    1773.887
     3104.111      9515.734    1725.387      3190.900      9530.847    1770.134
     3245.753      9595.441    1723.016      3327.302      9613.455    1768.210
     3394.514      9676.751    1723.441      3464.694      9696.446    1766.711
     3534.564      9755.633    1719.757      3594.008      9776.683    1759.283
     3680.895      9836.845    1722.595      3732.745      9859.602    1759.436
     3828.223      9919.530    1730.160      3874.453      9943.979    1766.401
     3971.128     10000.837    1739.150      4015.570     10028.248    1776.923
     4108.307     10078.763    1746.126      4153.763     10110.530    1786.577
     4246.703     10157.313    1757.073      4293.140     10193.417    1802.562
     4395.460     10244.646    1783.672      4444.865     10286.637    1838.554
     4526.528     10317.357    1796.173      4603.951     10387.588    1886.411
     4690.024     10420.037    1849.447      4728.148     10455.693    1898.359
     4829.630     10500.323    1876.322      4866.772     10534.991    1925.606
     4977.801     10587.842    1912.211      5009.253     10616.458    1952.376
     5108.701     10659.587    1919.442      5146.649     10693.273    1963.462
     5232.856     10725.851    1914.218      5277.875     10765.196    1960.559
     5368.320     10802.285    1915.832      5410.527     10838.803    1955.766
     5511.707     10885.636    1919.700      5548.820     10917.492    1955.652
     5649.831     10964.518    1915.518      5688.177     10997.170    1957.584
     5791.997     11046.890    1916.093      5828.894     11078.071    1961.949
     5936.127     11130.912    1921.928      5968.647     11158.253    1963.489
     6077.351     11212.481    1921.611      6106.612     11237.036    1963.451
      556.131      7844.894    1717.287       556.650      7843.988    1755.049
      695.976      7925.872    1720.710       697.936      7925.098    1759.064
      835.463      8006.895    1721.800       839.636      8006.186    1762.924
      974.893      8087.854    1724.981       982.284      8087.281    1767.391
     1113.856      8168.810    1726.948      1124.942      8168.472    1768.237
     1253.219      8249.743    1730.554      1267.943      8249.677    1768.819
     1392.085      8330.679    1731.189      1410.057      8330.875    1764.897
     1528.415      8411.557    1727.094      1550.262      8412.012    1759.175
     1665.004      8492.401    1724.026      1691.746      8493.146    1757.378
     1800.863      8573.188    1721.122      1837.924      8574.432    1762.694
     1939.305      8654.036    1722.036      1978.758      8655.565    1762.834
     2079.816      8734.955    1725.556      2127.055      8737.037    1770.588
     2220.467      8815.879    1730.021      2269.947      8818.345    1772.658
     2363.098      8896.916    1734.769      2423.568      8900.319    1781.169
     2514.246      8978.530    1741.591      2576.765      8982.516    1783.956
     2655.321      9059.612    1737.950      2713.547      9063.860    1772.944
     2792.318      9140.408    1731.731      2862.108      9146.316    1769.532
     2916.296      9219.836    1721.907      3004.203      9228.645    1763.633
     3043.517      9298.877    1716.346      3135.583      9310.160    1756.674
     3180.441      9378.230    1713.523      3288.059      9395.099    1763.956
     3325.831      9458.575    1713.264      3412.207      9476.033    1756.334
     3472.448      9539.230    1712.182      3545.225      9558.229    1752.417
     3608.800      9616.753    1707.290      3679.200      9640.347    1749.322
     3754.000      9696.854    1709.170      3802.836      9717.514    1740.850
     3897.430      9776.653    1713.096      3947.892      9802.985    1749.663
     4043.690      9858.848    1724.238      4092.175      9889.104    1762.490
     4178.229      9933.926    1729.426      4218.131      9962.843    1762.976
     4321.348     10015.110    1743.763      4360.123     10047.122    1780.474
     4460.634     10093.736    1757.975      4498.821     10128.849    1800.269
     4596.532     10169.472    1774.143      4688.877     10262.010    1885.420
     4724.997     10238.212    1784.046      4815.305     10332.272    1900.762
     4930.461     10386.234    1898.841      4960.667     10416.812    1938.968
     5070.262     10464.256    1923.732      5101.975     10494.520    1963.240
     5189.454     10523.958    1918.437      5226.216     10557.353    1958.913
     5315.195     10591.210    1916.964      5358.409     10629.248    1958.504
     5453.526     10670.040    1922.263      5492.878     10704.034    1957.418
     5593.626     10750.489    1924.158      5635.841     10786.512    1963.684
     5730.069     10827.925    1918.807      5768.952     10860.731    1960.843
     5874.686     10912.317    1922.234      5909.557     10941.420    1965.554
     6018.562     10996.065    1927.654      6050.693     11022.653    1968.026
     6159.778     11077.611    1927.358      6188.577     11101.321    1967.969
      635.597      7707.256    1714.649       636.057      7706.451    1747.407
      775.201      7788.319    1713.500       777.080      7787.609    1747.529
      914.643      7869.298    1716.207       918.771      7868.632    1753.461
     1053.933      7950.244    1719.699      1061.814      7949.670    1761.267
     1193.181      8031.177    1723.466      1204.873      8030.848    1763.519
     1331.959      8112.112    1725.678      1349.130      8112.054    1766.662
     1471.955      8193.054    1728.945      1492.986      8193.287    1765.736
     1609.473      8273.967    1726.745      1633.077      8274.440    1759.341
     1744.512      8354.794    1721.815      1776.960      8355.642    1760.046
     1879.095      8435.567    1717.690      1919.953      8436.823    1761.057
     2015.572      8516.363    1716.543      2062.887      8518.015    1762.876
     2156.782      8597.310    1720.487      2211.000      8599.434    1769.436
     2297.552      8678.239    1725.137      2353.042      8680.675    1769.729
     2440.746      8759.287    1729.672      2502.964      8762.351    1772.781
     2590.298      8840.723    1732.540      2653.900      8844.242    1771.077
     2736.591      8922.102    1728.810      2805.347      8926.383    1766.077
     2878.839      9003.343    1722.195      2955.601      9008.709    1759.887
     3001.595      9083.120    1710.291      3094.784      9090.629    1750.568
     3127.667      9162.269    1703.257      3223.586      9172.530    1745.571
     3265.468      9242.007    1703.038      3365.028      9255.941    1748.420
     3404.499      9321.456    1701.954      3497.039      9338.317    1744.593
     3540.689      9399.550    1697.174      3623.932      9419.388    1738.505
     3682.792      9478.252    1696.577      3753.671      9500.192    1734.526
     3832.693      9559.724    1701.302      3885.863      9580.683    1732.555
     3972.910      9637.540    1702.717      4023.421      9662.848    1736.618
     4111.090      9713.691    1707.008      4155.025      9741.107    1739.755
     4252.813      9792.061    1716.703      4288.076      9818.480    1745.342
     4400.379      9876.046    1732.933      4428.764      9900.976    1759.464
     4537.497      9951.693    1742.209      4562.023      9976.476    1769.794
     4673.929     10025.535    1755.298      4693.584     10048.778    1780.994
     4801.214     10091.328    1765.454      4895.029     10209.136    1893.254
     5011.698     10256.427    1892.062      5038.097     10286.454    1928.102
     5147.812     10327.333    1912.771      5181.946     10361.742    1955.153
     5269.802     10387.993    1912.729      5309.151     10424.623    1954.591
     5400.634     10459.305    1918.469      5446.637     10500.059    1960.597
     5537.460     10536.642    1924.277      5577.586     10571.149    1958.733
     5672.779     10612.959    1924.055      5708.578     10643.210    1956.833
     5820.003     10699.399    1931.802      5854.046     10727.755    1967.848
     5960.613     10780.323    1932.490      5992.003     10806.124    1970.563
     6103.530     10863.181    1935.816      6133.625     10887.640    1972.843