NOECHO

-- =============================================================================
-- 
-- Exported from Reek_base_sim
-- 
-- Exported by user asny from RMS11 at 2020-02-19 16:28:40
-- 
-- =============================================================================

MAPUNITS
'METRES  ' /

MAPAXES
456514.892 5939174.771
456514.892 5927115.548
467218.206 5927115.548 /

GRIDUNIT
'METRES  ' '        ' /

SPECGRID
  40  64  14   1  F  /

GDORIENT
INC INC INC DOWN RIGHT /

COORD
        0.000      8808.112    1729.020         0.159      8807.772    1766.293
      140.015      8889.154    1729.745       140.854      8888.828    1767.684
      279.932      8970.186    1731.516       281.747      8969.844    1772.506
      419.677      9051.207    1732.578       422.901      9050.872    1775.783
      559.275      9132.208    1734.388       564.190      9131.931    1775.392
      698.925      9213.190    1738.198       705.847      9213.001    1776.753
      838.182      9294.164    1740.078       847.615      9294.100    1779.019
      977.027      9375.113    1740.714       989.075      9375.222    1779.687
     1115.546      9456.021    1739.388      1129.487      9456.347    1775.296
     1254.068      9536.883    1737.850      1270.956      9537.512    1776.140
     1392.250      9617.679    1736.108      1413.938      9618.796    1781.124
     1530.490      9698.411    1736.338      1554.619      9700.021    1780.579
     1668.986      9779.090    1738.356      1696.172      9781.355    1780.503
     1806.522      9859.588    1738.901      1837.169      9862.720    1777.642
     1944.369      9939.971    1739.747      1977.597      9944.107    1773.926
     2082.598     10020.225    1740.966      2113.900     10024.963    1768.337
     2219.743     10100.062    1741.135      2251.647     10105.929    1766.959
     2358.352     10179.874    1742.178      2392.005     10187.360    1770.000
     2500.130     10260.247    1747.087      2538.479     10270.482    1780.647
     2642.383     10340.762    1754.595      2684.189     10354.009    1792.627
     2781.701     10420.244    1759.545      2826.403     10436.861    1800.065
     2920.093     10499.079    1761.441      2968.210     10519.766    1802.242
     3059.798     10578.224    1761.902      3108.796     10602.207    1802.081
     3201.004     10658.062    1761.531      3247.199     10683.414    1799.296
     3341.729     10737.681    1760.230      3384.916     10763.911    1797.324
     3480.844     10816.269    1758.987      3524.417     10845.253    1799.149
     3620.222     10894.930    1760.178      3667.968     10929.401    1807.905
     3760.375     10974.163    1764.451      3810.300     11012.909    1819.666
     3902.055     11054.793    1772.648      3946.063     11091.088    1827.492
     4042.849     11134.984    1785.701      4083.582     11170.240    1839.910
     4187.590     11218.987    1810.729      4228.420     11255.605    1863.309
     4333.709     11304.695    1836.868      4375.963     11343.486    1888.559
     4470.052     11381.637    1847.311      4512.473     11421.105    1899.162
     4613.227     11465.039    1866.507      4655.356     11504.481    1918.579
     4760.979     11552.832    1893.911      4800.027     11589.497    1940.690
     4904.823     11637.010    1912.668      4941.619     11671.643    1954.027
     5043.918     11716.734    1920.059      5078.239     11749.140    1958.537
     5182.293     11795.777    1922.151      5212.133     11824.061    1958.949
     5322.675     11876.716    1925.365      5349.604     11902.367    1962.908
     5463.245     11957.832    1930.028      5487.218     11980.802    1966.823
     5603.594     12038.729    1929.773      5624.824     12059.222    1966.644
       79.447      8670.479    1729.057        79.635      8670.148    1766.350
      219.474      8751.523    1729.776       220.317      8751.208    1767.743
      359.393      8832.558    1731.531       361.211      8832.224    1772.514
      499.159      8913.575    1732.627       502.427      8913.248    1775.793
      638.819      8994.575    1734.443       643.794      8994.306    1775.430
      778.661      9075.553    1738.212       785.597      9075.375    1776.779
      918.137      9156.532    1740.125       927.617      9156.476    1779.050
     1056.977      9237.490    1740.726      1069.260      9237.606    1779.675
     1195.497      9318.408    1739.418      1209.322      9318.727    1775.317
     1334.016      9399.284    1737.876      1350.338      9399.875    1776.148
     1472.223      9480.096    1736.171      1492.912      9481.125    1781.111
     1610.725      9560.866    1736.412      1633.693      9562.338    1780.586
     1749.751      9641.617    1738.402      1775.649      9643.683    1780.504
     1888.197      9722.250    1738.988      1916.989      9725.064    1777.634
     2027.156      9802.842    1739.873      2057.849      9806.497    1773.904
     2166.477      9883.373    1741.088      2195.277      9887.551    1768.315
     2304.628      9963.573    1741.278      2334.378      9968.832    1767.017
     2444.080     10043.808    1742.427      2475.642     10050.583    1770.198
     2586.477     10124.626    1747.568      2622.095     10133.836    1780.977
     2728.398     10205.386    1754.982      2768.388     10217.710    1792.925
     2868.146     10285.406    1759.823      2912.500     10301.509    1800.254
     3007.356     10365.010    1761.627      3054.174     10384.748    1802.320
     3147.697     10444.927    1762.042      3193.265     10466.874    1802.091
     3289.200     10525.408    1761.578      3330.432     10547.742    1799.358
     3430.286     10605.745    1760.180      3468.565     10628.746    1797.390
     3569.788     10685.115    1759.070      3608.909     10710.915    1799.547
     3708.838     10764.080    1760.429      3752.132     10795.120    1808.436
     3847.539     10842.687    1764.882      3893.057     10877.819    1820.033
     3987.287     10922.104    1773.122      4027.250     10954.921    1827.748
     4126.655     11001.307    1786.398      4163.108     11032.744    1840.106
     4269.979     11084.174    1811.393      4305.471     11115.896    1862.847
     4413.800     11167.827    1836.942      4450.705     11201.584    1887.750
     4549.759     11244.438    1847.336      4587.649     11279.542    1898.876
     4692.783     11327.689    1866.540      4730.450     11362.778    1917.895
     4839.548     11414.521    1893.728      4874.805     11447.427    1939.813
     4982.544     11497.876    1912.466      5017.695     11530.731    1953.735
     5121.976     11577.917    1920.017      5155.685     11609.498    1958.563
     5261.214     11657.781    1922.163      5290.586     11685.386    1959.120
     5402.412     11739.487    1925.401      5428.735     11764.332    1963.015
     5543.430     11821.027    1930.047      5567.003     11843.398    1966.910
     5683.619     11901.778    1929.790      5704.708     11921.930    1966.728
      158.886      8532.887    1726.939       159.096      8532.521    1763.187
      298.863      8613.924    1728.338       299.755      8613.588    1764.688
      438.763      8694.943    1731.134       440.810      8694.576    1772.736
      578.343      8775.969    1730.591       582.148      8775.603    1775.392
      717.935      8856.958    1732.654       723.430      8856.680    1773.266
      857.882      8937.926    1736.963       865.105      8937.758    1773.281
      996.840      9018.905    1736.949      1006.735      9018.858    1773.371
     1136.413      9099.862    1740.424      1150.183      9099.993    1779.463
     1274.254      9180.771    1738.271      1288.309      9181.078    1771.749
     1412.540      9261.643    1737.048      1430.041      9262.229    1775.328
     1550.330      9342.444    1734.949      1573.537      9343.501    1782.333
     1688.798      9423.219    1734.998      1713.231      9424.643    1779.170
     1828.170      9504.001    1736.860      1855.198      9505.954    1778.455
     1965.263      9584.539    1735.095      1993.718      9587.051    1772.114
     2106.139      9665.333    1738.167      2136.534      9668.605    1771.606
     2244.564      9745.781    1738.188      2270.787      9749.234    1763.005
     2382.850      9826.030    1737.902      2412.226      9830.777    1763.137
     2521.828      9906.183    1738.065      2552.752      9912.305    1764.518
     2664.725      9987.054    1742.987      2702.892      9996.243    1777.113
     2808.147     10068.199    1750.619      2850.849     10080.563    1788.714
     2948.347     10148.426    1754.685      2995.960     10164.823    1795.199
     3087.118     10227.926    1755.666      3135.197     10247.335    1796.016
     3227.581     10307.900    1756.259      3274.098     10329.550    1797.364
     3368.832     10388.226    1756.205      3406.768     10408.244    1792.215
     3509.571     10468.324    1754.984      3544.860     10489.125    1790.232
     3649.539     10547.967    1754.579      3686.233     10571.838    1792.937
     3787.574     10626.220    1755.237      3829.644     10656.103    1801.730
     3925.711     10704.362    1759.688      3971.889     10739.778    1815.406
     4066.576     10784.643    1771.173      4103.692     10814.991    1821.695
     4201.908     10860.400    1780.458      4237.366     10890.874    1832.904
     4347.478     10945.163    1809.930      4379.495     10973.670    1857.446
     4496.830     11033.819    1844.905      4531.148     11065.060    1893.682
     4626.536     11104.741    1847.240      4661.806     11137.208    1896.417
     4768.895     11187.354    1865.855      4805.348     11221.023    1915.764
     4921.356     11279.380    1900.054      4957.539     11312.784    1945.687
     5063.863     11362.237    1917.255      5097.674     11393.425    1955.068
     5199.464     11438.744    1920.355      5232.644     11469.358    1956.433
     5336.267     11516.368    1919.083      5365.785     11543.638    1954.417
     5478.249     11598.775    1922.100      5505.468     11623.986    1959.052
     5620.296     11681.250    1927.186      5645.127     11704.339    1963.718
     5760.737     11762.228    1926.937      5783.023     11783.068    1963.493
      238.341      8395.266    1728.017       238.598      8394.819    1766.557
      378.345      8476.292    1730.265       379.438      8475.869    1770.390
      518.154      8557.330    1730.770       520.417      8556.918    1771.917
      657.898      8638.332    1732.544       661.781      8637.961    1773.374
      797.406      8719.328    1733.377       803.096      8719.046    1771.003
      936.024      8800.328    1731.331       943.477      8800.159    1764.796
     1074.678      8881.286    1732.188      1085.272      8881.236    1766.678
     1214.917      8962.232    1738.288      1228.624      8962.348    1772.800
     1353.814      9043.161    1739.683      1372.074      9043.519    1778.768
     1492.321      9124.054    1739.677      1513.153      9124.679    1781.105
     1632.641      9204.983    1742.509      1656.642      9205.957    1786.977
     1770.760      9285.797    1740.844      1797.143      9287.163    1784.015
     1906.466      9366.400    1735.972      1934.503      9368.196    1775.583
     2043.501      9446.968    1733.745      2074.858      9449.421    1772.301
     2184.671      9527.790    1737.123      2212.854      9530.486    1767.187
     2322.402      9608.193    1736.313      2349.232      9611.350    1761.198
     2462.137      9688.682    1736.553      2490.053      9692.743    1759.724
     2600.198      9768.731    1735.267      2636.548      9775.275    1764.281
     2746.653      9850.341    1742.117      2787.417      9859.360    1774.833
     2888.414      9931.132    1746.600      2936.268      9944.006    1784.598
     3026.708     10010.819    1747.909      3073.202     10025.866    1783.972
     3166.140     10090.544    1748.933      3214.157     10108.988    1787.130
     3308.147     10171.156    1751.084      3358.070     10193.546    1794.187
     3453.875     10253.789    1756.322      3495.313     10275.122    1795.245
     3592.403     10332.906    1754.664      3626.823     10352.912    1788.666
     3733.885     10413.693    1756.940      3772.508     10438.675    1796.108
     3871.018     10491.579    1757.733      3914.091     10522.173    1803.311
     4008.478     10569.415    1762.781      4053.236     10603.871    1814.487
     4148.584     10649.250    1775.620      4179.730     10674.896    1816.105
     4290.731     10731.034    1797.175      4320.234     10756.566    1839.099
     4437.476     10817.231    1829.671      4467.197     10843.795    1872.994
     4574.890     10895.269    1848.297      4605.719     10923.339    1892.122
     4710.143     10971.311    1859.299      4743.372     11001.808    1905.475
     4860.018     11060.836    1888.309      4890.117     11088.472    1928.413
     5006.698     11147.446    1912.737      5034.515     11172.916    1945.299
     5137.830     11219.861    1915.351      5169.179     11248.469    1947.926
     5272.902     11295.937    1917.408      5301.832     11322.273    1947.026
     5414.349     11377.839    1920.517      5440.846     11401.930    1950.648
     5556.480     11460.366    1922.966      5582.912     11484.402    1957.128
     5698.026     11542.358    1926.442      5723.850     11565.888    1962.305
     5838.783     11623.627    1926.247      5861.921     11644.793    1962.064
      317.834      8257.580    1732.901       318.107      8257.103    1769.063
      457.920      8338.621    1734.233       459.117      8338.151    1773.456
      597.734      8419.681    1732.670       600.208      8419.228    1772.862
      736.995      8500.740    1728.931       741.262      8500.331    1769.106
      876.100      8581.740    1728.805       882.631      8581.415    1767.511
     1014.920      8662.715    1729.745      1023.253      8662.524    1763.170
     1153.947      8743.667    1732.754      1164.419      8743.606    1762.969
     1292.965      8824.607    1736.000      1306.580      8824.697    1766.300
     1432.298      8905.538    1739.159      1453.471      8905.891    1779.209
     1571.212      8986.447    1740.592      1593.858      8987.033    1780.607
     1712.156      9067.400    1744.132      1739.504      9068.360    1788.543
     1852.444      9148.334    1745.236      1881.334      9149.628    1786.644
     1989.502      9229.086    1741.754      2024.177      9231.010    1785.457
     2125.394      9309.672    1737.487      2160.649      9312.067    1777.289
     2260.769      9390.065    1734.445      2297.294      9393.111    1771.302
     2399.295      9470.556    1734.310      2433.335      9474.063    1764.621
     2537.897      9550.888    1732.804      2572.560      9555.340    1759.947
     2683.635      9632.145    1736.383      2722.572      9638.399    1764.553
     2831.102      9714.033    1742.115      2880.063      9723.809    1776.247
     2964.135      9792.910    1738.891      3014.462      9805.288    1773.300
     3097.518      9870.997    1735.783      3149.610      9886.625    1771.536
     3237.689      9950.487    1736.405      3288.438      9968.838    1773.566
     3384.063     10032.372    1741.634      3439.346     10056.115    1786.931
     3533.707     10116.573    1751.063      3582.891     10141.241    1795.427
     3675.778     10197.705    1754.565      3716.084     10220.889    1792.913
     3815.981     10277.876    1756.939      3856.557     10304.170    1795.893
     3952.118     10355.163    1758.088      3997.864     10387.993    1803.427
     4092.459     10435.286    1767.702      4131.547     10465.895    1809.870
     4229.566     10512.831    1779.399      4256.413     10535.454    1811.740
     4383.026     10604.812    1817.807      4418.581     10636.333    1864.259
     4525.431     10687.604    1846.136      4558.124     10717.327    1891.867
     4650.078     10754.038    1848.747      4684.441     10785.632    1896.842
     4793.043     10837.205    1873.047      4823.023     10864.779    1913.531
     4948.942     10932.235    1909.285      4975.016     10956.104    1941.744
     5088.072     11011.856    1921.384      5112.953     11034.507    1948.145
     5214.055     11079.628    1917.344      5243.835     11106.577    1946.000
     5349.495     11156.090    1918.617      5376.548     11180.441    1944.815
     5492.370     11239.280    1922.205      5518.347     11262.560    1950.646
     5632.376     11319.899    1921.240      5662.230     11346.579    1958.571
     5775.694     11403.467    1926.143      5803.682     11428.465    1963.255
     5916.741     11484.998    1925.852      5941.901     11507.512    1963.045
      397.278      8119.979    1729.717       397.536      8119.529    1760.038
      537.360      8200.999    1732.156       538.542      8200.535    1766.886
      677.259      8282.040    1732.073       680.017      8281.536    1772.386
      816.543      8363.104    1728.567       821.305      8362.647    1769.003
      955.376      8444.124    1727.383       962.073      8443.788    1763.202
     1094.103      8525.101    1729.122      1101.956      8524.913    1757.465
     1234.171      8606.045    1735.596      1246.623      8605.954    1767.670
     1371.752      8686.996    1735.834      1388.549      8687.066    1768.940
     1508.814      8767.899    1735.514      1531.994      8768.209    1773.977
     1648.240      8848.809    1738.157      1673.906      8849.359    1777.332
     1789.183      8929.749    1741.367      1819.658      8930.642    1783.790
     1932.151      9010.771    1745.718      1965.598      9012.029    1787.116
     2071.900      9091.682    1745.601      2106.132      9093.286    1783.366
     2207.708      9172.350    1741.532      2244.607      9174.478    1778.520
     2344.538      9252.968    1739.379      2386.237      9255.929    1777.918
     2481.983      9333.506    1737.001      2521.293      9336.969    1769.645
     2620.124      9413.950    1733.363      2662.680      9418.658    1764.181
     2768.773      9495.651    1736.957      2814.932      9502.111    1766.650
     2905.591      9575.749    1734.051      2956.678      9584.741    1764.389
     3034.133      9653.622    1727.771      3090.323      9666.004    1760.216
     3172.223      9732.700    1726.910      3233.048      9749.350    1762.883
     3310.590      9811.293    1725.386      3365.011      9829.590    1760.943
     3458.917      9893.315    1731.111      3518.263      9917.508    1776.035
     3608.420      9976.843    1740.542      3657.968     10000.946    1782.355
     3750.503     10057.500    1744.927      3795.224     10082.986    1784.385
     3895.498     10140.332    1752.934      3944.473     10172.356    1796.474
     4035.689     10220.467    1759.394      4080.061     10253.056    1799.985
     4175.969     10300.773    1770.386      4212.327     10330.242    1806.794
     4314.951     10380.105    1786.502      4344.169     10405.771    1819.660
     4453.542     10459.199    1808.628      4508.338     10509.997    1875.050
     4601.763     10547.586    1844.462      4637.219     10581.142    1892.362
     4731.690     10618.620    1856.769      4767.791     10652.779    1906.299
     4884.507     10711.109    1896.960      4916.124     10740.569    1938.064
     5031.551     10797.907    1920.642      5060.508     10824.478    1953.938
     5158.333     10866.210    1918.103      5194.113     10898.676    1953.597
     5285.991     10935.584    1915.531      5327.111     10972.556    1952.537
     5429.826     11019.616    1923.291      5461.660     11048.001    1952.877
     5569.987     11100.381    1923.397      5597.554     11124.775    1952.979
     5710.323     11181.323    1922.149      5740.885     11208.198    1959.806
     5854.634     11265.744    1927.780      5882.881     11290.491    1963.982
     5995.924     11347.491    1927.481      6021.355     11369.756    1963.794
      476.686      7982.441    1721.925       476.930      7982.015    1748.252
      616.676      8063.424    1725.878       617.836      8062.974    1756.866
      756.681      8144.417    1728.860       759.527      8143.902    1766.823
      896.241      8225.453    1728.118       901.038      8224.995    1765.362
     1035.446      8306.469    1729.146      1042.734      8306.098    1764.670
     1174.444      8387.461    1731.890      1184.461      8387.208    1764.609
     1313.282      8468.435    1735.089      1326.325      8468.313    1765.342
     1450.017      8549.391    1734.608      1469.085      8549.421    1768.293
     1587.260      8630.307    1735.194      1611.670      8630.543    1771.027
     1725.368      8711.202    1735.830      1755.956      8711.709    1776.119
     1862.946      8792.056    1734.550      1893.810      8792.773    1771.551
     2006.233      8873.037    1739.242      2041.856      8874.116    1777.654
     2147.810      8953.984    1741.720      2187.251      8955.492    1779.866
     2291.380      9035.036    1745.259      2333.947      9037.061    1782.699
     2431.672      9115.962    1744.841      2473.312      9118.413    1778.775
     2570.721      9196.802    1741.635      2614.221      9199.986    1773.992
     2703.880      9277.055    1732.522      2755.896      9281.884    1766.771
     2844.141      9357.761    1729.093      2897.979      9364.203    1759.391
     2975.724      9437.054    1722.978      3038.640      9446.613    1754.331
     3105.137      9515.060    1717.443      3177.137      9528.969    1752.547
     3248.232      9595.022    1718.594      3315.757      9611.592    1752.702
     3387.511      9673.742    1717.215      3451.351      9693.412    1753.619
     3530.829      9753.398    1718.649      3585.042      9774.127    1755.503
     3673.349      9832.717    1722.169      3728.271      9858.416    1764.249
     3821.650      9915.338    1731.644      3874.187      9944.918    1773.586
     3970.213      9999.564    1743.141      4022.556     10034.249    1785.636
     4109.783     10078.639    1750.002      4161.801     10118.228    1793.638
     4253.900     10161.643    1764.849      4298.661     10199.950    1806.794
     4398.892     10246.465    1787.972      4426.548     10272.393    1818.597
     4524.921     10313.452    1796.502      4594.798     10382.823    1880.860
     4686.897     10416.367    1850.727      4719.039     10448.875    1892.907
     4825.603     10495.585    1876.876      4857.815     10527.651    1919.984
     4975.066     10584.772    1913.377      5007.109     10615.469    1953.304
     5107.850     10657.899    1920.979      5140.934     10688.549    1956.672
     5232.549     10724.198    1917.351      5273.706     10761.532    1955.525
     5364.485     10797.482    1918.433      5406.633     10835.177    1954.433
     5508.436     10881.599    1925.433      5545.630     10914.489    1959.065
     5648.186     10962.020    1924.822      5678.394     10988.443    1956.900
     5790.672     11044.853    1925.838      5820.976     11071.102    1962.934
     5935.184     11129.406    1931.412      5963.597     11153.840    1966.829
     6076.657     11211.312    1931.108      6102.225     11233.218    1966.675
      556.122      7844.854    1716.939       556.387      7844.391    1744.251
      695.953      7925.860    1718.720       697.130      7925.413    1747.811
      835.776      8006.851    1721.343       839.136      8006.254    1762.646
      975.222      8087.870    1721.823       981.253      8087.298    1765.098
     1115.068      8168.836    1727.968      1123.928      8168.379    1767.666
     1255.037      8249.812    1734.373      1267.753      8249.470    1772.302
     1392.996      8330.820    1735.495      1408.764      8330.636    1768.841
     1530.296      8411.796    1736.352      1552.022      8411.759    1771.396
     1666.763      8492.735    1735.667      1695.899      8492.892    1774.413
     1802.264      8573.629    1732.877      1835.890      8574.000    1772.310
     1938.580      8654.483    1730.271      1974.266      8655.070    1768.376
     2079.861      8735.388    1732.812      2120.947      8736.307    1772.580
     2222.943      8816.336    1737.150      2265.278      8817.573    1773.938
     2369.887      8897.454    1742.819      2411.661      8899.007    1775.476
     2513.935      8978.549    1743.122      2561.574      8980.773    1776.996
     2659.800      9059.846    1742.061      2710.159      9062.794    1775.045
     2788.507      9140.072    1728.677      2844.876      9144.301    1762.035
     2924.566      9220.528    1721.680      2993.155      9227.363    1755.216
     3056.126      9300.103    1715.349      3138.656      9310.756    1750.605
     3190.840      9379.397    1712.339      3271.511      9392.794    1746.887
     3329.790      9458.779    1711.992      3405.546      9475.116    1745.271
     3467.603      9537.306    1710.579      3537.778      9556.751    1745.343
     3605.519      9615.013    1709.091      3670.098      9637.761    1747.543
     3744.434      9692.140    1710.061      3802.752      9717.949    1749.469
     3887.436      9770.522    1715.013      3943.903      9801.561    1755.584
     4035.245      9852.244    1725.360      4090.969      9889.553    1766.958
     4175.635      9929.811    1732.764      4238.926      9980.103    1782.375
     4322.169     10013.261    1748.019      4369.875     10057.110    1791.009
     4457.698     10087.628    1757.883      4497.600     10128.496    1802.121
     4590.408     10159.221    1771.201      4683.254     10261.413    1887.912
     4716.044     10224.221    1779.499      4815.503     10335.365    1908.463
     4923.178     10378.775    1895.784      4961.591     10419.910    1946.648
     5063.201     10457.149    1920.611      5099.523     10493.472    1964.968
     5184.829     10518.579    1917.587      5225.345     10556.828    1959.749
     5309.314     10584.486    1915.590      5354.603     10625.699    1955.654
     5448.197     10664.032    1922.987      5490.567     10701.725    1957.884
     5591.700     10747.683    1930.089      5629.977     10781.213    1964.006
     5730.220     10827.003    1929.472      5765.368     10857.366    1966.263
     5873.846     10910.768    1932.630      5905.481     10937.743    1970.812
     6018.381     10995.264    1937.896      6047.936     11020.199    1973.666
     6159.915     11077.197    1937.605      6186.370     11099.366    1973.595
      635.585      7707.220    1715.087       635.864      7706.733    1743.141
      775.301      7788.264    1714.045       776.658      7787.766    1745.536
      915.132      7869.236    1717.933       918.556      7868.642    1756.981
     1054.450      7950.263    1718.373      1060.499      7949.696    1758.465
     1193.228      8031.281    1720.751      1203.212      8030.758    1762.151
     1332.785      8112.242    1728.200      1347.495      8111.818    1768.679
     1471.510      8193.227    1732.874      1490.791      8192.944    1770.448
     1609.630      8274.207    1735.695      1632.691      8274.073    1770.239
     1748.786      8355.177    1738.324      1777.206      8355.179    1773.430
     1882.579      8436.123    1733.120      1915.879      8436.267    1769.258
     2017.194      8517.019    1728.541      2057.405      8517.358    1768.461
     2156.385      8597.904    1729.278      2198.685      8598.464    1767.277
     2299.477      8678.823    1733.473      2347.755      8679.746    1772.316
     2443.866      8759.786    1735.933      2496.431      8761.165    1773.338
     2592.592      8840.950    1736.589      2650.791      8842.965    1773.330
     2734.183      8921.967    1729.769      2796.534      8924.739    1765.721
     2874.400      9002.979    1721.134      2939.816      9006.692    1755.105
     3003.776      9083.209    1709.827      3082.467      9089.192    1744.224
     3134.831      9162.918    1703.176      3226.587      9172.510    1741.468
     3276.370      9243.331    1704.221      3360.888      9255.184    1738.139
     3408.550      9321.885    1702.636      3485.512      9336.205    1733.421
     3538.969      9398.758    1699.514      3613.788      9417.034    1732.583
     3681.443      9477.510    1701.427      3741.492      9496.548    1732.865
     3821.502      9554.926    1703.576      3887.162      9581.583    1742.562
     3963.453      9632.056    1707.212      4025.154      9664.331    1747.218
     4106.699      9709.275    1713.082      4167.302      9749.862    1755.347
     4250.835      9787.687    1722.101      4311.372      9837.935    1767.830
     4393.689      9866.229    1731.976      4442.496      9914.735    1775.756
     4533.803      9943.356    1742.457      4568.010      9982.555    1781.854
     4668.687     10013.570    1752.449      4702.802     10058.990    1800.904
     4793.451     10076.311    1761.553      4901.570     10220.927    1910.991
     5002.170     10245.178    1885.799      5046.317     10297.648    1945.940
     5140.277     10319.103    1909.371      5181.443     10362.340    1959.864
     5266.712     10383.927    1913.895      5308.860     10424.578    1957.003
     5397.205     10454.901    1918.931      5436.553     10490.836    1952.758
     5535.210     10533.447    1926.566      5577.086     10570.429    1960.316
     5673.140     10612.124    1930.635      5716.045     10649.233    1967.967
     5819.322     10697.951    1939.624      5858.601     10731.351    1979.537
     5959.627     10778.763    1941.337      5993.531     10807.151    1980.702
     6103.180     10862.315    1944.845      6134.458     10888.158    1981.391