NOECHO

-- =============================================================================
-- 
-- Exported from Reek_base_sim
-- 
-- Exported by user hakal from RMS11 at 2019-11-13 14:22:58
-- 
-- =============================================================================

MAPUNITS
'METRES  ' /

MAPAXES
456514.888 5939175.458
456514.888 5927115.548
467218.573 5927115.548 /

GRIDUNIT
'METRES  ' '        ' /

SPECGRID
  40  64  14   1  F  /

GDORIENT
INC INC INC DOWN RIGHT /

COORD
        0.000      8808.124    1734.133         0.158      8807.776    1771.704
      139.996      8889.161    1735.640       140.921      8888.813    1773.349
      279.867      8970.191    1737.545       281.851      8969.841    1775.358
      419.581      9051.204    1739.577       422.994      9050.886    1777.447
      559.111      9132.197    1741.817       564.349      9131.953    1779.762
      698.473      9213.174    1744.093       705.948      9213.041    1782.190
      837.694      9294.127    1745.991       847.732      9294.153    1784.318
      976.804      9375.061    1746.767       989.590      9375.292    1785.296
     1115.710      9455.962    1745.652      1131.272      9456.456    1784.221
     1254.191      9536.811    1742.787      1272.154      9537.616    1781.353
     1392.206      9617.586    1739.531      1412.385      9618.757    1778.093
     1530.082      9698.280    1737.602      1552.830      9699.924    1776.382
     1667.872      9778.880    1737.347      1693.698      9781.152    1776.357
     1805.741      9859.378    1738.289      1835.095      9862.490    1777.652
     1944.017      9939.777    1740.082      1976.932      9943.985    1779.667
     2082.046     10019.963    1741.709      2118.282     10025.566    1781.351
     2220.214     10099.933    1743.203      2259.056     10107.209    1783.141
     2359.531     10179.876    1745.743      2399.942     10189.028    1786.340
     2500.366     10260.005    1750.684      2542.070     10271.344    1792.262
     2641.398     10340.107    1757.179      2684.417     10354.004    1799.079
     2781.724     10419.876    1762.682      2825.828     10436.594    1804.171
     2920.789     10498.981    1765.226      2967.026     10519.232    1805.893
     3059.446     10577.662    1765.079      3107.530     10601.587    1805.600
     3199.988     10657.172    1764.668      3248.057     10683.903    1805.539
     3341.262     10737.167    1764.137      3387.033     10765.211    1804.764
     3480.456     10815.913    1762.754      3524.417     10845.243    1803.749
     3618.985     10894.108    1763.032      3661.602     10924.772    1805.010
     3758.681     10973.111    1766.670      3799.301     11004.331    1810.062
     3900.306     11053.768    1773.665      3936.910     11083.518    1817.658
     4041.316     11134.207    1784.932      4076.384     11164.005    1830.703
     4184.777     11217.057    1808.554      4221.439     11249.268    1854.072
     4330.839     11302.597    1834.222      4370.122     11337.904    1880.236
     4467.902     11380.266    1845.527      4510.399     11418.981    1896.007
     4612.108     11464.555    1866.257      4653.770     11502.774    1916.818
     4760.637     11552.921    1894.228      4798.905     11588.165    1938.756
     4903.705     11636.307    1911.726      4940.869     11670.655    1952.708
     5041.188     11714.532    1917.150      5077.719     11748.437    1957.559
     5180.111     11794.074    1919.622      5213.114     11824.858    1959.780
     5321.266     11875.689    1923.540      5350.744     11903.350    1964.465
     5462.312     11957.204    1928.256      5488.168     11981.643    1968.761
     5602.962     12038.340    1928.001      5625.587     12059.911    1968.571
       79.446      8670.487    1734.165        79.652      8670.125    1771.736
      219.472      8751.521    1735.676       220.461      8751.167    1773.383
      359.384      8832.551    1737.582       361.460      8832.197    1775.389
      499.161      8913.562    1739.623       502.698      8913.247    1777.481
      638.787      8994.555    1741.867       644.149      8994.325    1779.793
      778.274      9075.532    1744.143       785.898      9075.423    1782.217
      917.610      9156.495    1746.038       927.884      9156.545    1784.337
     1056.847      9237.438    1746.803      1069.859      9237.694    1785.303
     1195.929      9318.355    1745.680      1211.519      9318.861    1784.215
     1334.648      9399.230    1742.821      1352.439      9400.027    1781.342
     1472.784      9480.031    1739.583      1492.694      9481.172    1778.085
     1610.956      9560.776    1737.671      1633.194      9562.345    1776.384
     1749.269      9641.459    1737.428      1774.156      9643.584    1776.366
     1887.845      9722.083    1738.381      1915.713      9724.940    1777.666
     2026.987      9802.673    1740.198      2057.877      9806.482    1779.681
     2165.801      9883.101    1741.853      2199.915      9888.188    1781.363
     2304.754      9963.386    1743.393      2341.749      9970.082    1783.177
     2444.778     10043.710    1746.030      2483.575     10052.226    1786.445
     2586.036     10124.231    1751.079      2626.230     10134.858    1792.461
     2727.055     10204.657    1757.556      2769.312     10217.980    1799.289
     2867.633     10284.879    1762.975      2911.500     10301.170    1804.331
     3007.284     10364.631    1765.385      3052.460     10384.083    1805.956
     3146.669     10444.096    1765.184      3192.407     10466.538    1805.669
     3287.750     10524.346    1764.779      3332.441     10548.916    1805.634
     3429.403     10605.030    1764.142      3471.491     10630.574    1804.826
     3569.193     10684.647    1762.776      3609.548     10711.360    1803.875
     3707.744     10763.350    1763.228      3746.896     10791.338    1805.315
     3846.403     10842.017    1767.087      3883.444     10870.340    1810.448
     3985.729     10921.177    1774.053      4018.836     10947.976    1817.950
     4124.960     11000.331    1785.550      4156.220     11026.805    1830.919
     4267.752     11082.717    1809.319      4299.096     11110.166    1853.769
     4411.650     11166.380    1834.400      4445.160     11196.392    1879.393
     4548.088     11243.515    1845.607      4585.054     11277.053    1895.456
     4691.597     11327.163    1866.281      4727.778     11360.188    1915.929
     4838.723     11414.204    1893.947      4872.259     11444.898    1937.688
     4981.232     11497.055    1911.535      5015.556     11528.548    1952.278
     5119.410     11575.930    1917.128      5154.344     11608.091    1957.549
     5259.248     11656.322    1919.630      5291.275     11685.934    1959.874
     5401.097     11738.574    1923.575      5429.906     11765.353    1964.568
     5542.304     11820.234    1928.273      5568.073     11844.346    1968.854
     5682.631     11901.068    1928.015      5705.588     11922.725    1968.661
      158.886      8532.894    1732.062       159.143      8532.445    1769.504
      298.853      8613.923    1733.320       300.007      8613.505    1770.910
      438.698      8694.942    1735.220       441.090      8694.547    1772.904
      578.354      8775.946    1736.884       582.411      8775.613    1774.638
      717.867      8856.928    1739.011       723.989      8856.703    1776.820
      857.279      8937.894    1741.431       865.913      8937.813    1779.343
      996.583      9018.848    1743.629      1008.161      9018.948    1781.752
     1135.899      9099.789    1744.985      1150.523      9100.111    1783.368
     1275.016      9180.708    1744.407      1292.415      9181.292    1782.903
     1413.522      9261.580    1741.704      1433.291      9262.454    1780.277
     1551.305      9342.371    1738.217      1573.199      9343.579    1776.771
     1689.279      9423.112    1736.062      1713.466      9424.729    1774.919
     1827.543      9503.809    1735.449      1854.065      9505.926    1774.449
     1966.446      9584.487    1736.395      1995.438      9587.239    1775.509
     2105.550      9665.099    1737.789      2137.223      9668.701    1776.953
     2244.057      9745.516    1738.629      2278.920      9750.309    1777.730
     2382.771      9825.784    1739.487      2421.146      9832.213    1778.954
     2522.587      9906.060    1741.491      2563.530      9914.434    1781.602
     2663.928      9986.554    1746.023      2706.812      9997.206    1786.977
     2805.549     10067.108    1752.109      2850.584     10080.556    1793.292
     2947.558     10147.806    1757.958      2994.000     10164.280    1798.665
     3086.877     10227.466    1759.612      3133.627     10246.856    1799.766
     3226.355     10306.982    1759.383      3272.588     10329.010    1799.757
     3367.570     10387.278    1759.273      3411.996     10411.162    1800.016
     3509.360     10468.023    1759.231      3551.333     10493.071    1799.798
     3648.555     10547.261    1757.616      3689.306     10573.906    1798.572
     3786.233     10625.342    1757.420      3825.557     10653.208    1799.041
     3924.271     10703.495    1761.198      3962.528     10732.577    1805.727
     4064.577     10783.384    1771.458      4097.125     10809.629    1814.598
     4199.386     10858.810    1778.946      4231.360     10885.806    1825.590
     4345.090     10943.624    1807.501      4374.903     10969.639    1851.126
     4494.358     11032.045    1841.492      4525.929     11060.191    1885.771
     4624.726     11103.777    1845.254      4660.916     11136.405    1895.812
     4768.007     11187.201    1866.168      4803.332     11219.170    1915.610
     4920.466     11279.010    1900.888      4952.485     11307.994    1942.643
     5062.820     11361.687    1917.170      5095.659     11391.414    1955.377
     5196.008     11436.067    1916.491      5230.885     11467.671    1955.534
     5333.888     11514.682    1916.028      5367.145     11544.887    1955.979
     5476.794     11597.857    1920.344      5506.795     11625.202    1960.560
     5618.733     11680.153    1925.535      5646.344     11705.449    1965.532
     5759.202     11761.099    1925.272      5784.037     11784.009    1965.302
      238.335      8395.284    1730.880       238.641      8394.750    1768.097
      378.246      8476.325    1731.067       379.560      8475.832    1768.487
      517.978      8557.344    1732.325       520.699      8556.891    1769.840
      657.526      8638.334    1734.136       662.162      8637.967    1771.771
      796.833      8719.307    1735.813       803.851      8719.074    1773.528
      935.900      8800.261    1737.545       945.768      8800.199    1775.316
     1074.977      8881.200    1739.764      1088.116      8881.343    1777.607
     1214.411      8962.133    1742.135      1230.982      8962.520    1780.126
     1354.348      9043.078    1743.995      1374.158      9043.742    1782.288
     1494.398      9124.023    1744.751      1516.994      9124.995    1783.388
     1633.322      9204.906    1743.383      1658.104      9206.206    1781.993
     1770.832      9285.670    1740.395      1797.675      9287.348    1779.058
     1907.364      9366.295    1736.984      1936.228      9368.423    1775.710
     2044.480      9446.858    1735.124      2075.528      9449.558    1774.040
     2183.081      9527.438    1735.712      2216.675      9530.920    1774.737
     2321.969      9607.922    1736.646      2359.117      9612.574    1775.779
     2461.874      9688.397    1738.114      2503.457      9694.765    1777.596
     2602.734      9768.914    1740.376      2648.620      9777.552    1780.848
     2745.132      9849.710    1744.748      2792.254      9860.576    1784.495
     2882.646      9929.218    1745.902      2932.552      9943.184    1786.368
     3024.242     10009.643    1750.073      3075.310     10026.791    1790.508
     3165.888     10090.081    1752.954      3216.986     10110.367    1793.907
     3309.459     10171.444    1756.172      3359.129     10194.354    1797.869
     3452.590     10252.918    1758.573      3498.043     10276.829    1799.104
     3591.765     10332.402    1757.469      3635.420     10358.127    1798.229
     3730.868     10411.717    1757.075      3773.900     10439.699    1798.277
     3868.382     10489.816    1757.930      3910.487     10519.637    1800.141
     4006.364     10568.046    1763.062      4046.713     10598.819    1807.889
     4144.058     10645.935    1772.464      4178.333     10673.760    1816.005
     4286.467     10727.833    1793.130      4323.282     10759.134    1844.872
     4434.307     10814.835    1825.819      4466.190     10842.769    1871.805
     4572.176     10893.326    1844.417      4603.807     10921.543    1889.062
     4706.463     10968.613    1854.781      4741.080     10999.746    1903.079
     4857.904     11059.402    1887.407      4889.347     11087.702    1930.277
     5006.823     11147.932    1915.215      5038.093     11176.008    1953.587
     5138.335     11220.847    1916.807      5173.884     11252.678    1955.712
     5270.745     11294.611    1914.870      5308.394     11328.260    1954.707
     5412.271     11376.529    1917.910      5447.108     11407.652    1957.498
     5555.172     11459.666    1921.750      5586.300     11487.508    1960.892
     5696.780     11541.642    1926.036      5726.092     11567.939    1965.151
     5837.400     11622.721    1925.814      5863.876     11646.598    1964.968
      317.799      8257.648    1730.554       318.149      8257.037    1767.464
      457.753      8338.680    1731.472       459.226      8338.118    1768.523
      597.422      8419.716    1731.464       600.480      8419.207    1768.605
      736.690      8500.724    1731.426       741.939      8500.319    1768.828
      875.755      8581.689    1732.750       883.752      8581.442    1770.294
     1014.619      8662.629    1734.543      1025.917      8662.580    1772.221
     1153.288      8743.552    1736.307      1168.356      8743.736    1774.048
     1292.169      8824.465    1738.255      1311.199      8824.917    1776.018
     1431.866      8905.393    1740.525      1454.588      8906.141    1778.404
     1572.353      8986.349    1742.748      1598.178      8987.412    1780.842
     1712.949      9067.314    1744.389      1741.373      9068.714    1782.753
     1852.228      9148.206    1744.166      1882.874      9149.978    1782.759
     1990.068      9228.977    1742.442      2022.574      9231.166    1781.110
     2126.613      9309.582    1739.505      2160.825      9312.274    1778.201
     2262.428      9389.991    1736.592      2298.839      9393.386    1775.268
     2399.892      9470.375    1735.503      2440.030      9474.886    1774.190
     2540.234      9550.934    1736.392      2586.376      9557.284    1775.783
     2683.204      9631.821    1739.215      2734.442      9640.542    1778.783
     2823.915      9712.314    1740.926      2876.650      9723.406    1779.060
     2957.263      9790.817    1738.142      3011.919      9804.923    1776.259
     3095.421      9869.901    1738.473      3152.827      9887.898    1778.523
     3238.840      9950.470    1741.459      3294.946      9971.555    1782.450
     3384.474     10032.215    1745.724      3438.313     10056.090    1788.123
     3530.168     10114.597    1750.609      3579.429     10139.904    1792.016
     3671.571     10195.192    1752.652      3719.926     10223.408    1794.907
     3813.278     10276.156    1756.359      3860.731     10307.044    1798.849
     3950.479     10354.149    1758.767      3996.298     10386.879    1801.347
     4088.552     10432.529    1765.842      4132.295     10466.399    1811.028
     4225.849     10510.141    1777.345      4262.663     10540.681    1820.852
     4377.985     10600.675    1812.817      4420.759     10637.919    1868.133
     4522.427     10685.176    1842.213      4557.408     10716.340    1890.640
     4647.805     10752.577    1845.240      4684.091     10785.260    1895.731
     4790.001     10835.040    1868.939      4824.197     10865.878    1915.105
     4948.454     10932.137    1910.001      4978.827     10959.418    1948.481
     5086.291     11010.652    1921.047      5119.562     11040.374    1958.281
     5211.558     11078.042    1915.272      5251.000     11113.075    1954.947
     5346.694     11154.307    1915.457      5387.508     11190.381    1955.909
     5491.072     11238.750    1920.536      5526.986     11270.375    1959.343
     5633.275     11321.256    1922.972      5665.761     11349.805    1961.852
     5775.429     11403.702    1927.387      5806.376     11430.910    1966.089
     5916.213     11484.929    1927.155      5944.224     11509.631    1965.917
      397.238      8120.056    1727.015       397.626      8119.378    1763.496
      537.188      8201.058    1729.478       538.821      8200.434    1766.175
      676.957      8282.071    1731.102       680.373      8281.508    1768.037
      816.266      8363.082    1731.281       822.150      8362.640    1768.444
      955.042      8444.059    1731.309       964.057      8443.798    1768.618
     1093.393      8524.998    1731.894      1106.204      8524.960    1769.353
     1231.665      8605.909    1733.403      1248.862      8606.130    1770.984
     1369.977      8686.804    1735.032      1391.860      8687.321    1772.746
     1508.851      8767.701    1736.810      1535.068      8768.536    1774.594
     1648.718      8848.625    1738.932      1678.481      8849.785    1776.771
     1789.359      8929.581    1741.240      1822.034      8931.078    1779.223
     1930.261      9010.549    1743.385      1965.402      9012.413    1781.589
     2070.751      9091.497    1744.723      2107.965      9093.767    1783.171
     2209.201      9172.293    1743.659      2248.189      9175.046    1782.313
     2345.961      9252.896    1741.225      2387.013      9256.295    1779.873
     2481.594      9333.254    1737.328      2525.757      9337.627    1775.214
     2617.877      9413.440    1733.328      2668.867      9419.611    1771.716
     2761.610      9494.411    1735.244      2818.737      9502.994    1773.160
     2897.254      9573.972    1732.782      2957.034      9585.151    1769.113
     3029.026      9652.045    1728.805      3093.917      9667.155    1767.081
     3168.046      9731.043    1728.600      3234.517      9750.167    1768.812
     3312.723      9811.541    1730.937      3374.814      9833.336    1771.548
     3457.414      9892.312    1733.596      3514.668      9916.502    1775.055
     3602.759      9973.836    1738.107      3657.224     10001.046    1780.333
     3747.380     10055.638    1743.491      3801.751     10087.096    1787.220
     3890.996     10137.476    1750.244      3944.596     10172.620    1794.534
     4029.937     10216.490    1755.968      4081.428     10253.993    1799.929
     4169.559     10295.958    1766.189      4217.933     10334.559    1812.580
     4310.984     10377.052    1784.325      4354.944     10414.942    1833.517
     4450.128     10456.504    1806.036      4511.115     10511.934    1879.300
     4600.766     10546.961    1842.898      4637.696     10581.146    1892.252
     4731.469     10618.983    1855.425      4767.625     10652.467    1904.711
     4882.806     10709.948    1893.385      4915.543     10739.865    1935.531
     5031.363     10798.074    1920.279      5064.050     10827.531    1958.083
     5155.785     10864.521    1915.859      5195.315     10899.760    1955.866
     5284.835     10935.351    1914.364      5328.275     10973.723    1954.409
     5424.823     11015.945    1918.204      5467.545     11053.378    1958.115
     5568.217     11099.520    1921.157      5605.343     11131.814    1959.941
     5709.290     11181.055    1921.391      5744.655     11211.646    1962.698
     5853.438     11265.220    1927.645      5886.369     11293.623    1967.182
     5994.466     11346.665    1927.345      6024.340     11372.441    1967.002
      476.655      7982.503    1721.539       477.075      7981.769    1757.617
      616.475      8063.490    1724.313       618.260      8062.816    1760.593
      756.223      8144.469    1727.588       759.968      8143.864    1764.115
      895.806      8225.443    1730.307       902.285      8224.970    1767.063
     1034.792      8306.419    1731.201      1044.791      8306.146    1768.189
     1172.871      8387.368    1730.999      1187.185      8387.339    1768.217
     1310.399      8468.275    1731.241      1329.719      8468.529    1768.633
     1447.976      8549.153    1732.257      1472.632      8549.724    1769.780
     1586.241      8630.034    1733.900      1615.936      8630.938    1771.543
     1725.140      8710.924    1735.554      1759.045      8712.163    1773.265
     1864.790      8791.832    1737.423      1902.152      8793.409    1775.224
     2005.354      8872.770    1739.665      2045.575      8874.708    1777.534
     2146.771      8953.749    1741.878      2189.508      8956.090    1779.947
     2288.913      9034.778    1743.736      2333.909      9037.597    1782.003
     2429.749      9115.737    1743.647      2476.699      9119.141    1781.547
     2568.895      9196.557    1740.766      2617.154      9200.687    1776.599
     2700.605      9276.547    1731.694      2756.333      9282.350    1768.331
     2837.795      9356.776    1728.055      2901.041      9364.981    1763.794
     2969.442      9435.784    1723.434      3042.042      9447.550    1760.057
     3102.813      9514.172    1720.273      3181.167      9530.238    1759.465
     3245.378      9593.860    1721.245      3322.368      9613.797    1761.579
     3390.956      9674.389    1723.102      3458.628      9696.235    1762.330
     3532.049      9753.448    1722.875      3594.155      9778.155    1763.423
     3674.125      9832.734    1724.898      3734.008      9861.623    1767.207
     3819.940      9914.254    1731.444      3880.803      9949.111    1776.461
     3964.096      9995.648    1739.418      4021.375     10033.649    1783.236
     4102.320     10073.372    1745.737      4161.931     10118.153    1792.816
     4245.935     10155.369    1759.719      4301.272     10201.740    1809.789
     4393.667     10241.994    1784.532      4436.220     10280.977    1831.380
     4522.596     10311.816    1795.031      4596.555     10383.502    1883.634
     4687.123     10416.695    1849.906      4721.770     10450.904    1894.986
     4827.148     10497.320    1876.748      4861.488     10530.758    1922.370
     4977.573     10587.325    1913.741      5008.470     10616.361    1951.616
     5108.587     10659.000    1920.228      5143.830     10691.095    1957.805
     5229.956     10722.590    1914.513      5273.563     10761.496    1954.783
     5361.837     10795.981    1915.984      5409.178     10837.627    1956.440
     5503.688     10878.226    1920.814      5547.388     10916.235    1959.874
     5646.194     10961.030    1922.094      5684.265     10993.793    1961.222
     5787.378     11042.688    1921.600      5823.852     11073.782    1964.117
     5932.438     11127.604    1928.698      5966.529     11156.479    1968.800
     6073.686     11209.245    1928.353      6104.649     11235.399    1968.627
      556.088      7844.920    1717.615       556.533      7844.143    1753.305
      695.742      7925.926    1719.296       697.665      7925.214    1755.145
      835.235      8006.904    1722.017       839.282      8006.269    1758.122
      974.628      8087.853    1725.254       981.652      8087.362    1761.618
     1113.930      8168.795    1728.427      1124.814      8168.515    1765.040
     1253.025      8249.740    1731.188      1268.626      8249.719    1767.975
     1390.685      8330.665    1731.518      1411.798      8330.940    1768.539
     1527.206      8411.540    1730.995      1554.226      8412.140    1768.263
     1664.017      8492.392    1731.246      1696.627      8493.325    1768.632
     1802.126      8573.266    1732.673      1839.716      8574.531    1770.279
     1941.026      8654.153    1734.438      1982.734      8655.749    1772.111
     2080.330      8735.039    1736.007      2125.758      8736.994    1773.787
     2221.478      8815.991    1737.814      2270.223      8818.348    1775.657
     2365.508      8897.096    1739.971      2417.417      8899.930    1777.864
     2511.953      8978.396    1741.759      2566.296      8981.778    1779.072
     2654.248      9059.513    1738.501      2706.871      9063.318    1772.116
     2785.707      9139.759    1727.794      2846.629      9145.056    1762.911
     2917.423      9219.659    1720.264      2990.967      9227.682    1756.074
     3049.036      9298.965    1715.739      3133.974      9310.691    1752.311
     3185.042      9378.122    1713.657      3273.212      9393.741    1752.772
     3327.349      9457.927    1714.867      3412.354      9477.333    1754.255
     3467.830      9537.008    1714.298      3540.434      9558.150    1751.672
     3605.804      9614.656    1712.384      3675.297      9640.237    1752.996
     3746.934      9692.778    1713.706      3811.795      9722.550    1755.366
     3890.754      9772.091    1718.583      3956.251      9808.890    1763.456
     4034.220      9851.689    1725.974      4095.329      9892.699    1769.793
     4170.862      9926.645    1731.282      4233.362      9975.533    1778.124
     4316.755     10009.104    1745.553      4372.281     10058.899    1794.406
     4458.825     10089.550    1761.148      4503.217     10133.900    1810.506
     4593.019     10162.948    1775.044      4683.865     10260.499    1888.927
     4718.862     10228.456    1781.135      4817.899     10336.664    1909.245
     4927.892     10383.419    1898.690      4963.196     10420.466    1945.080
     5066.597     10460.479    1920.802      5097.469     10490.788    1957.554
     5186.168     10520.311    1916.485      5224.792     10556.173    1955.372
     5308.995     10584.982    1914.684      5356.045     10627.123    1955.193
     5443.195     10660.454    1918.956      5492.405     10703.552    1958.759
     5582.875     10740.810    1922.304      5626.793     10778.680    1960.560
     5725.231     10823.479    1923.543      5765.348     10857.594    1964.431
     5870.473     10908.556    1927.329      5906.336     10938.668    1969.237
     6014.703     10992.707    1933.204      6048.737     11021.002    1972.754
     6156.066     11074.438    1932.900      6186.871     11099.896    1972.651
      635.536      7707.314    1715.296       635.996      7706.509    1750.636
      775.056      7788.338    1715.862       777.101      7787.605    1751.299
      914.314      7869.323    1717.701       918.628      7868.671    1753.387
     1053.322      7950.270    1720.075      1060.818      7949.769    1756.006
     1192.185      8031.195    1722.914      1203.815      8030.913    1759.093
     1331.079      8112.117    1726.237      1347.807      8112.101    1762.688
     1469.960      8193.046    1729.490      1492.603      8193.332    1766.250
     1608.257      8273.971    1731.547      1636.982      8274.569    1768.410
     1744.816      8354.849    1731.411      1779.585      8355.759    1768.523
     1880.818      8435.690    1730.978      1921.126      8436.903    1768.376
     2017.792      8516.537    1731.535      2062.875      8518.050    1769.030
     2156.766      8597.427    1733.138      2206.452      8599.277    1770.774
     2298.298      8678.398    1734.721      2352.464      8680.641    1772.382
     2444.352      8759.576    1736.418      2502.592      8762.271    1773.775
     2592.384      8840.914    1736.092      2651.871      8844.015    1771.634
     2733.833      8921.977    1729.355      2795.956      8925.671    1763.975
     2872.931      9002.930    1720.994      2941.069      9007.650    1755.639
     3000.537      9082.896    1710.521      3083.631      9090.006    1746.804
     3132.190      9162.508    1704.999      3223.850      9172.966    1744.143
     3275.202      9243.052    1707.239      3367.502      9256.979    1746.308
     3412.725      9322.511    1708.042      3499.373      9339.635    1745.214
     3543.633      9399.596    1704.943      3624.992      9420.524    1742.957
     3682.481      9477.409    1704.755      3760.045      9503.209    1745.751
     3824.703      9555.696    1707.143      3895.193      9585.613    1748.434
     3965.435      9632.658    1709.651      4033.272      9669.223    1752.972
     4107.034      9709.545    1714.903      4172.516      9753.646    1759.596
     4248.758      9786.673    1722.751      4312.151      9838.384    1769.253
     4395.486      9868.973    1735.717      4449.579      9921.218    1783.499
     4536.515      9947.268    1746.978      4577.189      9992.650    1793.953
     4672.172     10018.937    1757.272      4707.001     10064.173    1806.379
     4796.907     10081.649    1763.961      4899.141     10215.712    1904.435
     5007.676     10250.931    1889.221      5040.302     10288.972    1932.985
     5143.515     10322.360    1908.985      5179.598     10359.586    1951.652
     5267.997     10385.583    1912.566      5311.258     10426.616    1954.714
     5395.575     10454.127    1917.199      5444.847     10498.408    1957.801
     5528.025     10527.943    1921.526      5577.474     10570.931    1960.240
     5661.722     10603.145    1921.498      5706.793     10641.526    1960.289
     5809.875     10690.665    1929.958      5850.428     10724.616    1970.742
     5954.685     10775.253    1934.512      5990.106     10804.462    1975.029
     6098.691     10859.120    1939.027      6132.451     10886.609    1977.588