NOECHO

-- =============================================================================
-- 
-- Exported from Reek_base_sim
-- 
-- Exported by user asny from RMS11 at 2020-02-19 16:56:28
-- 
-- =============================================================================

MAPUNITS
'METRES  ' /

MAPAXES
456514.871 5939174.462
456514.871 5927115.548
467218.295 5927115.548 /

GRIDUNIT
'METRES  ' '        ' /

SPECGRID
  40  64  14   1  F  /

GDORIENT
INC INC INC DOWN RIGHT /

COORD
        0.000      8808.151    1738.831         0.197      8807.736    1769.266
      139.989      8889.188    1738.820       140.918      8888.801    1769.494
      279.873      8970.212    1739.880       281.828      8969.824    1772.982
      419.676      9051.211    1742.485       423.200      9050.840    1778.544
      559.357      9132.196    1744.467       564.661      9131.914    1779.477
      698.810      9213.170    1745.388       706.180      9213.016    1778.588
      837.923      9294.124    1745.434       847.971      9294.137    1777.514
      977.207      9375.057    1746.213       990.027      9375.289    1776.542
     1116.474      9455.968    1746.198      1130.766      9456.438    1772.962
     1254.954      9536.819    1744.193      1272.452      9537.641    1772.141
     1392.912      9617.590    1741.535      1415.604      9618.977    1774.301
     1531.116      9698.307    1740.136      1556.890      9700.274    1774.070
     1669.942      9779.005    1740.531      1698.218      9781.638    1774.078
     1807.796      9859.523    1739.632      1837.532      9862.863    1772.300
     1944.576      9939.750    1737.694      1977.492      9944.205    1771.927
     2082.776     10019.957    1737.925      2119.863     10026.016    1774.721
     2221.282     10099.988    1739.330      2260.270     10107.689    1776.731
     2360.771     10179.988    1742.475      2401.390     10189.665    1781.201
     2502.145     10260.313    1748.500      2543.662     10272.154    1788.883
     2645.450     10341.256    1757.839      2685.568     10354.812    1797.406
     2786.153     10421.367    1764.171      2827.762     10437.820    1804.621
     2924.676     10500.417    1766.030      2968.913     10520.573    1805.565
     3063.001     10579.057    1765.373      3109.258     10602.955    1803.928
     3202.630     10658.162    1764.269      3245.053     10682.629    1798.798
     3343.016     10737.661    1763.033      3380.370     10761.382    1794.078
     3482.203     10816.360    1761.717      3516.237     10839.890    1791.769
     3620.484     10894.314    1762.105      3655.824     10920.651    1796.008
     3760.858     10973.833    1766.882      3800.221     11005.133    1809.141
     3902.444     11054.551    1775.886      3939.808     11085.909    1821.248
     4042.274     11134.042    1788.734      4081.882     11168.726    1840.008
     4187.740     11218.828    1815.158      4231.492     11258.346    1869.751
     4333.133     11303.976    1840.770      4379.033     11346.271    1894.609
     4469.080     11380.598    1851.754      4515.982     11424.289    1906.238
     4612.779     11464.540    1871.961      4657.959     11506.818    1924.962
     4761.160     11552.948    1899.448      4802.761     11591.945    1947.028
     4903.654     11635.872    1916.420      4943.978     11673.733    1961.455
     5041.904     11714.818    1922.309      5080.793     11751.429    1966.678
     5180.781     11794.344    1923.949      5214.490     11826.191    1966.871
     5321.617     11875.716    1926.753      5349.789     11902.456    1967.891
     5462.923     11957.534    1931.933      5486.855     11980.381    1970.838
     5603.468     12038.623    1931.645      5624.574     12058.914    1970.703
       79.455      8670.501    1738.850        79.683      8670.101    1769.282
      219.497      8751.536    1738.848       220.440      8751.157    1769.523
      359.460      8832.557    1739.926       361.425      8832.179    1773.012
      499.338      8913.558    1742.540       502.907      8913.201    1778.552
      639.152      8994.546    1744.516       644.481      8994.283    1779.493
      778.770      9075.526    1745.424       786.104      9075.396    1778.598
      918.075      9156.491    1745.495       928.043      9156.526    1777.538
     1057.468      9237.437    1746.265      1070.207      9237.688    1776.536
     1196.879      9318.367    1746.229      1211.071      9318.844    1772.957
     1335.562      9399.246    1744.215      1352.873      9400.055    1772.151
     1473.681      9480.047    1741.587      1495.905      9481.386    1774.307
     1612.038      9560.808    1740.229      1636.989      9562.667    1774.057
     1751.225      9641.578    1740.572      1778.290      9644.021    1774.083
     1889.695      9722.216    1739.660      1917.667      9725.250    1772.285
     2027.354      9802.648    1737.801      2058.068      9806.651    1771.937
     2166.310      9883.099    1738.060      2201.198      9888.586    1774.742
     2305.597      9963.453    1739.543      2342.715      9970.521    1776.766
     2445.772     10043.835    1742.753      2484.814     10052.830    1781.357
     2587.579     10124.554    1748.990      2627.287     10135.544    1789.104
     2730.498     10205.676    1758.245      2769.230     10218.424    1797.625
     2871.422     10286.203    1764.414      2912.614     10302.128    1804.776
     3010.772     10365.992    1766.143      3053.845     10385.254    1805.592
     3150.101     10445.560    1765.447      3193.981     10467.884    1803.886
     3290.542     10525.581    1764.333      3329.892     10547.995    1798.712
     3431.623     10605.997    1763.020      3465.938     10627.570    1794.010
     3571.333     10685.563    1761.743      3602.586     10706.998    1791.955
     3708.958     10763.552    1762.335      3741.863     10787.921    1796.646
     3847.760     10842.271    1767.364      3884.197     10871.107    1809.775
     3987.369     10921.656    1776.319      4021.423     10950.133    1821.615
     4125.982     11000.289    1789.433      4161.236     11031.071    1840.141
     4269.965     11083.851    1815.798      4307.749     11117.890    1868.952
     4413.229     11167.087    1840.850      4453.417     11204.013    1893.774
     4548.839     11243.420    1851.783      4590.790     11282.366    1905.848
     4692.219     11327.060    1871.964      4732.793     11364.860    1924.278
     4839.704     11414.599    1899.263      4877.653     11449.973    1946.192
     4981.751     11497.091    1916.284      5020.391     11533.126    1961.184
     5120.392     11576.411    1922.290      5158.483     11611.997    1966.702
     5260.013     11656.644    1923.960      5293.219     11687.755    1967.024
     5401.493     11738.619    1926.792      5429.292     11764.767    1968.086
     5543.128     11820.744    1931.954      5566.971     11843.286    1970.997
     5683.407     11901.586    1931.663      5704.740     11921.888    1970.855
      158.904      8532.890    1737.753       159.184      8532.404    1768.756
      298.912      8613.927    1737.084       299.951      8613.506    1766.794
      438.738      8694.958    1736.645       440.924      8694.548    1768.935
      578.608      8775.939    1739.694       582.850      8775.540    1777.419
      718.582      8856.907    1742.749       724.471      8856.652    1777.242
      858.152      8937.884    1743.579       866.137      8937.782    1775.850
      996.924      9018.843    1742.492      1007.167      9018.917    1772.065
     1136.601      9099.788    1744.431      1151.249      9100.109    1776.073
     1276.087      9180.720    1744.861      1290.615      9181.220    1769.932
     1414.747      9261.601    1743.171      1432.626      9262.427    1769.657
     1551.870      9342.357    1739.531      1576.489      9343.783    1772.825
     1689.208      9423.051    1737.095      1716.395      9424.963    1771.319
     1830.165      9503.963    1739.518      1858.289      9506.328    1772.656
     1968.559      9584.625    1738.273      1995.270      9587.298    1768.601
     2106.197      9665.099    1736.007      2137.314      9668.822    1769.940
     2244.835      9745.544    1735.409      2281.186      9750.790    1772.633
     2383.697      9825.850    1735.958      2421.022      9832.398    1771.932
     2524.273      9906.315    1739.265      2563.681      9914.734    1776.022
     2664.649      9986.636    1743.542      2706.976      9997.590    1783.434
     2809.549     10068.241    1753.549      2848.468     10080.321    1790.354
     2951.714     10149.217    1759.708      2994.868     10165.091    1798.972
     3090.441     10228.817    1760.309      3133.974     10247.505    1798.368
     3229.492     10308.264    1759.232      3276.470     10331.408    1799.541
     3370.181     10388.384    1758.446      3408.191     10409.512    1791.532
     3511.167     10468.702    1757.472      3545.565     10489.947    1788.638
     3651.325     10548.547    1756.874      3680.910     10568.587    1785.444
     3786.036     10624.417    1755.109      3817.570     10647.575    1787.823
     3924.498     10702.732    1760.781      3962.568     10732.701    1804.901
     4066.018     10783.589    1773.849      4096.862     10809.302    1814.945
     4200.030     10858.207    1782.081      4235.604     10889.204    1833.910
     4347.947     10945.182    1815.344      4384.313     10977.869    1867.977
     4496.381     11033.143    1848.722      4533.439     11067.085    1899.261
     4625.675     11103.705    1851.834      4664.485     11139.557    1903.198
     4768.238     11186.584    1871.273      4806.742     11222.197    1921.315
     4921.705     11279.596    1905.590      4958.328     11313.392    1950.089
     5062.779     11361.161    1920.476      5100.140     11395.568    1962.110
     5198.068     11437.416    1922.404      5236.330     11472.627    1964.851
     5335.494     11515.642    1921.021      5369.251     11546.730    1962.421
     5476.762     11597.398    1922.629      5504.360     11622.870    1961.000
     5619.543     11680.553    1928.549      5643.530     11702.773    1964.749
     5760.044     11761.591    1928.234      5781.619     11781.684    1964.544
      238.368      8395.255    1737.146       238.713      8394.652    1769.788
      378.317      8476.325    1734.874       379.476      8475.842    1764.090
      517.996      8557.367    1733.532       520.260      8556.940    1762.726
      658.008      8638.312    1737.896       662.392      8637.910    1772.087
      797.749      8719.283    1739.313       804.049      8719.031    1771.876
      936.633      8800.256    1738.497       945.152      8800.172    1768.699
     1075.172      8881.191    1738.450      1087.571      8881.308    1769.986
     1215.877      8962.146    1743.162      1229.673      8962.466    1769.884
     1356.048      9043.103    1745.041      1370.804      9043.612    1768.039
     1494.114      9123.970    1742.969      1512.975      9124.814    1768.036
     1634.516      9204.923    1743.788      1658.683      9206.250    1772.949
     1773.017      9285.753    1742.563      1801.585      9287.628    1775.106
     1910.496      9366.464    1740.881      1936.523      9368.479    1769.329
     2048.203      9447.112    1738.944      2077.107      9449.750    1770.052
     2188.046      9527.885    1738.754      2219.085      9531.253    1770.988
     2327.456      9608.543    1738.141      2361.784      9613.033    1771.237
     2466.758      9689.079    1738.151      2505.465      9695.252    1772.700
     2604.604      9769.183    1738.530      2648.533      9777.778    1775.438
     2746.917      9850.049    1743.603      2788.661      9860.036    1778.151
     2888.714      9930.844    1748.870      2929.565      9942.686    1782.642
     3027.376     10010.578    1750.530      3068.000     10024.684    1783.736
     3165.708     10089.822    1750.214      3213.143     10109.266    1788.742
     3311.824     10172.357    1754.994      3359.769     10195.180    1794.161
     3454.728     10253.816    1756.843      3496.345     10276.428    1791.860
     3593.758     10333.209    1755.684      3633.469     10357.421    1790.614
     3734.327     10413.471    1757.051      3766.046     10434.845    1786.366
     3869.076     10489.542    1756.639      3904.750     10515.740    1792.004
     4006.137     10566.911    1762.492      4045.236     10597.805    1806.113
     4145.348     10645.925    1775.036      4175.904     10671.578    1814.277
     4288.478     10728.539    1798.460      4323.611     10759.385    1848.032
     4435.675     10815.223    1831.697      4467.750     10844.200    1877.446
     4574.018     10894.125    1851.505      4605.017     10922.568    1893.995
     4706.346     10967.509    1859.450      4739.367     10997.969    1903.149
     4857.530     11058.347    1890.182      4890.583     11088.777    1932.099
     5007.445     11147.985    1917.870      5041.933     11179.581    1957.252
     5137.966     11219.881    1919.250      5176.757     11255.244    1959.607
     5273.495     11296.417    1920.875      5311.600     11331.027    1960.508
     5415.070     11378.460    1923.820      5445.337     11405.895    1958.650
     5556.255     11460.144    1925.178      5581.322     11482.857    1957.683
     5697.671     11542.028    1928.576      5721.515     11563.669    1961.746
     5838.429     11623.304    1928.373      5859.813     11642.786    1961.535
      317.840      8257.606    1736.393       318.209      8256.961    1767.061
      457.918      8338.638    1736.662       459.311      8338.048    1767.981
      597.736      8419.683    1735.662       600.424      8419.177    1766.237
      736.907      8500.728    1732.379       741.638      8500.304    1764.689
      876.167      8581.686    1732.931       884.028      8581.391    1768.321
     1015.465      8662.623    1735.373      1025.045      8662.549    1764.955
     1154.656      8743.553    1737.866      1166.911      8743.685    1765.318
     1292.314      8824.439    1737.267      1307.574      8824.801    1763.725
     1432.558      8905.373    1740.519      1453.625      8906.087    1770.026
     1572.288      8986.292    1741.629      1596.432      8987.328    1770.151
     1713.970      9067.306    1744.035      1740.583      9068.680    1772.316
     1854.375      9148.267    1744.951      1882.698      9149.986    1773.628
     1993.537      9229.143    1745.314      2021.377      9231.108    1772.853
     2128.701      9309.662    1741.245      2161.974      9312.401    1774.107
     2266.274      9390.259    1738.642      2301.471      9393.681    1772.101
     2407.254      9471.119    1738.701      2446.561      9475.709    1773.000
     2545.505      9551.568    1736.852      2589.150      9557.796    1771.540
     2685.878      9632.185    1738.314      2730.610      9640.066    1771.100
     2826.399      9712.742    1740.697      2875.979      9723.526    1775.650
     2962.472      9792.012    1740.083      3008.699      9804.345    1772.631
     3099.765      9871.048    1739.256      3148.476      9886.821    1774.323
     3239.335      9950.373    1738.954      3287.574      9969.081    1774.764
     3382.093     10030.822    1740.836      3434.138     10054.633    1780.567
     3531.368     10114.905    1748.290      3582.276     10141.913    1788.684
     3673.873     10196.135    1751.495      3722.455     10225.478    1791.831
     3815.043     10276.778    1755.102      3860.979     10307.790    1794.927
     3950.741     10353.543    1757.254      3992.930     10384.828    1796.370
     4086.933     10430.247    1764.068      4128.354     10463.507    1807.561
     4224.838     10508.133    1777.551      4260.420     10538.678    1820.303
     4376.286     10598.320    1813.784      4421.041     10638.577    1871.993
     4523.006     10685.009    1847.212      4558.258     10717.427    1895.520
     4649.123     10752.703    1851.725      4682.131     10783.318    1896.505
     4790.977     10834.941    1874.318      4822.513     10864.131    1915.096
     4948.906     10931.981    1912.469      4979.778     10960.359    1949.323
     5087.734     11011.367    1924.078      5122.626     11043.182    1960.820
     5211.119     11076.826    1917.235      5248.036     11110.226    1952.760
     5347.057     11153.810    1918.292      5384.258     11187.235    1954.634
     5491.509     11238.454    1923.197      5523.834     11267.342    1958.517
     5632.399     11319.889    1923.511      5659.334     11343.878    1956.637
     5775.606     11403.371    1928.479      5800.987     11425.952    1961.553
     5916.610     11484.874    1928.204      5939.374     11505.157    1961.310
      397.284      8120.005    1732.927       397.697      8119.283    1764.006
      537.455      8200.974    1735.918       539.054      8200.295    1768.534
      677.393      8282.014    1735.464       680.415      8281.449    1766.275
      816.619      8363.070    1732.205       821.635      8362.633    1762.401
      954.958      8444.072    1729.077       962.946      8443.789    1760.396
     1093.658      8524.993    1730.876      1104.595      8524.927    1760.437
     1232.615      8605.900    1734.107      1246.063      8606.058    1760.978
     1370.946      8686.787    1735.870      1390.649      8687.257    1766.862
     1509.669      8767.669    1737.599      1536.831      8768.566    1772.116
     1648.602      8848.546    1738.568      1678.354      8849.760    1770.064
     1787.728      8929.416    1738.942      1819.708      8930.957    1769.046
     1930.417      9010.466    1742.340      1962.485      9012.252    1771.041
     2072.233      9091.494    1745.149      2101.243      9093.349    1770.696
     2210.023      9172.249    1743.809      2246.159      9174.912    1775.454
     2348.893      9253.032    1742.011      2389.291      9256.510    1775.782
     2487.753      9333.752    1739.100      2528.250      9337.907    1770.036
     2625.499      9414.239    1735.723      2674.252      9420.341    1769.424
     2765.855      9494.921    1735.786      2820.879      9503.462    1770.421
     2899.508      9574.214    1732.877      2959.572      9585.824    1768.601
     3033.009      9652.708    1729.841      3086.493      9665.586    1761.840
     3175.256      9732.817    1730.744      3227.733      9748.427    1763.929
     3315.083      9811.995    1729.586      3367.127      9830.870    1764.807
     3455.568      9891.071    1729.667      3516.637      9917.705    1772.995
     3602.777      9973.358    1735.797      3660.027     10002.902    1778.069
     3747.650     10055.225    1741.550      3804.198     10089.105    1785.096
     3891.855     10137.375    1748.741      3943.945     10172.843    1790.711
     4030.418     10215.951    1755.001      4078.721     10252.557    1796.588
     4169.928     10295.201    1766.744      4218.147     10335.222    1814.171
     4310.383     10375.416    1785.449      4356.436     10416.615    1837.922
     4448.508     10453.842    1807.587      4512.600     10514.146    1885.101
     4599.907     10545.339    1846.304      4639.474     10583.234    1898.705
     4731.992     10618.396    1860.681      4766.588     10651.443    1906.900
     4884.872     10711.110    1899.207      4913.909     10738.364    1935.464
     5032.604     10798.624    1923.326      5064.626     10828.156    1958.895
     5158.053     10865.705    1919.725      5197.882     10901.945    1958.399
     5287.382     10936.639    1918.460      5328.849     10973.943    1955.678
     5426.565     11016.579    1921.553      5467.895     11053.387    1960.133
     5568.920     11099.354    1923.509      5601.446     11128.065    1958.098
     5709.142     11180.236    1922.352      5739.051     11206.453    1958.261
     5853.718     11264.906    1928.514      5881.248     11288.933    1962.894
     5994.996     11346.660    1928.195      6019.729     11368.221    1962.675
      476.667      7982.511    1724.966       477.068      7981.811    1752.957
      616.681      8063.441    1728.800       618.212      8062.796    1757.704
      756.657      8144.416    1730.804       759.824      8143.835    1760.274
      896.259      8225.419    1730.795       901.656      8224.964    1759.907
     1034.939      8306.417    1729.410      1044.057      8306.114    1760.995
     1174.000      8387.352    1731.966      1186.974      8387.291    1763.196
     1312.125      8468.267    1733.514      1328.510      8468.471    1763.347
     1450.032      8549.149    1735.082      1473.308      8549.702    1768.977
     1587.792      8630.006    1736.003      1616.468      8630.923    1769.660
     1726.537      8710.878    1737.207      1757.400      8712.072    1767.132
     1863.097      8791.637    1735.840      1896.619      8793.140    1764.510
     2005.396      8872.643    1739.119      2040.307      8874.422    1767.285
     2148.436      8953.710    1742.619      2185.584      8955.852    1771.878
     2292.779      9034.895    1745.889      2334.856      9037.651    1778.070
     2434.912      9115.986    1745.261      2479.334      9119.335    1777.163
     2575.079      9196.958    1741.572      2621.313      9201.056    1772.042
     2709.689      9277.341    1734.697      2760.514      9282.812    1765.356
     2847.071      9357.810    1731.717      2904.070      9365.454    1762.608
     2979.902      9437.250    1728.048      3043.409      9447.911    1759.959
     3109.799      9515.259    1722.962      3180.379      9530.268    1759.450
     3251.861      9595.143    1723.017      3313.833      9611.787    1757.730
     3390.958      9673.906    1720.975      3449.247      9693.398    1756.863
     3530.132      9752.105    1719.913      3588.950      9776.280    1758.709
     3672.120      9831.082    1722.649      3733.941      9861.863    1765.146
     3820.319      9913.714    1730.753      3885.524      9952.365    1777.549
     3967.638      9997.162    1740.348      4024.098     10036.107    1783.164
     4104.342     10073.701    1746.341      4163.778     10120.307    1794.264
     4247.241     10155.170    1761.444      4305.197     10205.933    1815.347
     4394.182     10241.352    1787.198      4440.181     10285.335    1838.593
     4522.061     10309.715    1798.045      4598.134     10386.461    1890.400
     4687.608     10416.608    1855.436      4723.039     10452.927    1901.073
     4828.290     10497.832    1882.291      4863.511     10533.287    1928.243
     4979.839     10589.067    1919.120      5011.333     10619.499    1957.014
     5110.290     10659.853    1923.844      5142.878     10690.224    1957.948
     5231.723     10723.129    1917.514      5270.959     10758.846    1953.108
     5365.558     10798.193    1920.291      5409.565     10837.601    1957.806
     5506.706     10879.897    1924.662      5548.069     10916.449    1962.391
     5647.117     10960.969    1924.170      5680.874     10990.436    1959.943
     5788.567     11042.956    1923.721      5819.849     11069.970    1961.415
     5933.865     11128.213    1930.836      5962.751     11152.962    1966.105
     6075.192     11210.019    1930.470      6101.236     11232.237    1965.910
      556.092      7844.943    1720.375       556.501      7844.229    1747.786
      695.910      7925.900    1722.295       697.438      7925.270    1749.735
      835.549      8006.881    1723.146       839.014      8006.265    1753.381
      974.860      8087.852    1723.822       981.553      8087.311    1757.053
     1113.923      8168.794    1725.760      1124.438      8168.469    1758.841
     1254.079      8249.714    1731.622      1267.005      8249.672    1760.051
     1392.381      8330.643    1733.764      1410.546      8330.882    1764.599
     1529.603      8411.524    1734.518      1553.817      8412.094    1767.726
     1665.613      8492.339    1733.538      1696.045      8493.276    1767.092
     1802.939      8573.164    1733.778      1837.910      8574.437    1765.755
     1939.708      8653.942    1733.264      1979.789      8655.599    1765.619
     2079.275      8734.812    1734.754      2120.181      8736.706    1765.646
     2220.670      8815.763    1736.818      2262.434      8817.917    1767.131
     2370.246      8897.187    1742.470      2409.986      8899.476    1769.553
     2519.282      8978.700    1744.068      2565.213      8981.689    1772.710
     2665.187      9060.159    1741.519      2711.812      9063.665    1768.418
     2794.477      9140.334    1730.346      2849.660      9145.313    1760.079
     2929.614      9220.772    1725.422      2999.205      9228.651    1758.550
     3058.623      9299.993    1719.900      3142.329      9312.014    1756.561
     3191.035      9378.776    1716.232      3268.490      9393.084    1752.585
     3333.417      9458.853    1717.315      3409.235      9476.903    1755.733
     3470.010      9537.075    1714.993      3543.727      9559.399    1756.141
     3607.060      9614.451    1712.923      3680.672      9642.474    1757.687
     3747.964      9692.501    1715.160      3819.016      9726.094    1760.564
     3892.902      9772.396    1720.353      3961.527      9812.200    1766.724
     4037.472      9852.725    1726.733      4100.559      9896.713    1772.944
     4172.273      9925.992    1731.651      4240.209      9981.630    1784.273
     4317.957     10008.265    1747.495      4381.729     10068.426    1805.203
     4458.339     10086.984    1762.898      4510.260     10141.574    1821.580
     4591.343     10158.776    1776.981      4684.885     10264.086    1897.372
     4716.068     10222.729    1783.840      4822.155     10343.254    1919.808
     4931.433     10387.513    1906.843      4967.371     10426.578    1953.478
     5068.239     10462.011    1925.433      5100.095     10494.233    1963.297
     5188.880     10522.054    1921.234      5223.108     10554.603    1955.926
     5310.514     10585.211    1917.032      5350.081     10621.363    1951.327
     5447.278     10662.929    1923.013      5491.637     10702.456    1959.712
     5586.501     10742.924    1926.358      5623.909     10775.677    1960.305
     5730.197     10826.835    1929.673      5763.413     10855.471    1964.994
     5873.869     10910.676    1932.073      5904.080     10936.356    1968.804
     6017.341     10994.296    1936.895      6046.637     11018.919    1972.191
     6158.644     11076.064    1936.619      6184.979     11098.036    1972.086
      635.578      7707.270    1720.166       636.010      7706.514    1749.197
      775.250      7788.307    1718.445       776.929      7787.636    1747.897
      914.888      7869.260    1720.101       918.743      7868.603    1752.465
     1054.120      7950.226    1720.686      1061.000      7949.702    1753.036
     1192.640      8031.176    1721.456      1204.588      8030.838    1756.683
     1331.723      8112.084    1725.828      1346.368      8112.058    1756.002
     1470.917      8193.000    1730.620      1491.692      8193.283    1763.885
     1610.639      8273.937    1735.134      1636.196      8274.526    1768.292
     1749.093      8354.847    1736.255      1781.312      8355.790    1770.075
     1881.855      8435.556    1731.736      1915.370      8436.688    1761.479
     2018.131      8516.343    1731.120      2063.887      8518.062    1767.310
     2153.657      8597.064    1729.990      2198.330      8598.911    1762.786
     2297.258      8678.109    1733.475      2345.495      8680.296    1766.934
     2445.010      8759.377    1736.250      2492.341      8761.738    1766.065
     2596.470      8840.924    1736.318      2646.782      8843.710    1764.603
     2741.911      8922.259    1730.743      2801.855      8926.005    1761.948
     2880.742      9003.255    1723.065      2948.666      9008.181    1756.298
     3009.147      9083.356    1714.226      3088.563      9090.454    1748.732
     3135.872      9162.551    1707.184      3230.344      9173.850    1748.833
     3277.695      9243.000    1709.109      3367.688      9257.275    1750.150
     3417.509      9322.959    1711.012      3498.881      9339.863    1749.750
     3552.433      9401.239    1710.162      3634.276      9423.273    1752.192
     3691.239      9479.645    1711.005      3761.083      9503.745    1749.896
     3830.886      9557.586    1713.069      3912.197      9593.114    1760.970
     3974.364      9636.596    1717.076      4046.317      9676.548    1762.726
     4112.440      9711.875    1718.270      4178.524      9758.082    1764.706
     4250.770      9786.300    1724.375      4317.720      9843.712    1775.296
     4395.648      9866.709    1737.192      4460.167      9932.923    1796.025
     4536.719      9944.758    1749.563      4585.004     10002.292    1807.055
     4671.102     10014.083    1758.668      4710.436     10068.603    1817.368
     4795.414     10076.362    1766.485      4903.932     10225.184    1917.751
     5010.447     10254.991    1897.013      5047.019     10299.351    1946.425
     5144.520     10323.396    1913.166      5181.327     10362.639    1957.461
     5270.007     10386.752    1916.441      5308.469     10424.171    1954.959
     5397.750     10455.033    1919.824      5437.183     10491.197    1953.207
     5531.328     10529.722    1924.815      5575.322     10568.622    1960.722
     5667.268     10606.822    1927.208      5709.527     10643.339    1965.622
     5814.476     10693.660    1935.913      5849.365     10723.252    1972.739
     5958.423     10777.618    1940.134      5988.932     10803.071    1976.509
     6101.761     10861.026    1943.494      6131.612     10885.584    1978.863