NOECHO

-- =============================================================================
-- 
-- Exported from Reek_base_sim
-- 
-- Exported by user asny from RMS11 at 2020-02-19 16:23:33
-- 
-- =============================================================================

MAPUNITS
'METRES  ' /

MAPAXES
456514.896 5939172.661
456514.896 5927115.548
467218.029 5927115.548 /

GRIDUNIT
'METRES  ' '        ' /

SPECGRID
  40  64  14   1  F  /

GDORIENT
INC INC INC DOWN RIGHT /

COORD
        0.000      8808.106    1738.077         0.134      8807.808    1771.354
      139.996      8889.142    1738.520       140.782      8888.872    1772.583
      279.890      8970.166    1740.568       281.643      8969.892    1779.208
      419.689      9051.167    1744.464       422.859      9050.922    1787.306
      559.487      9132.150    1748.398       564.131      9131.995    1788.394
      699.007      9213.128    1749.171       705.230      9213.088    1784.211
      838.533      9294.091    1749.869       847.184      9294.197    1783.403
      978.221      9375.047    1750.909       989.708      9375.355    1784.196
     1116.872      9455.953    1748.815      1131.417      9456.530    1782.689
     1254.998      9536.793    1745.383      1273.225      9537.747    1781.006
     1393.174      9617.578    1742.386      1412.842      9618.866    1775.887
     1531.330      9698.300    1741.287      1553.184      9700.039    1773.662
     1668.978      9778.897    1740.820      1693.668      9781.251    1773.122
     1806.711      9859.394    1740.797      1836.250      9862.742    1776.377
     1945.342      9939.874    1742.681      1980.595      9944.616    1782.140
     2084.101     10020.238    1743.995      2121.807     10026.269    1783.833
     2221.777     10100.233    1743.276      2259.154     10107.349    1782.000
     2360.236     10180.127    1744.806      2396.556     10188.346    1782.140
     2501.511     10260.504    1751.712      2536.156     10269.789    1786.826
     2642.715     10340.812    1760.161      2680.097     10352.604    1797.886
     2782.844     10420.669    1766.761      2826.688     10436.824    1811.221
     2921.368     10499.690    1769.445      2969.265     10520.071    1818.227
     3060.452     10578.672    1769.895      3108.486     10601.953    1816.643
     3200.496     10657.960    1768.555      3246.991     10683.266    1811.869
     3341.921     10738.028    1767.003      3384.396     10763.627    1806.650
     3482.237     10817.510    1764.841      3519.155     10841.842    1800.802
     3620.536     10895.604    1763.313      3655.817     10920.750    1799.596
     3759.309     10973.954    1765.375      3794.119     11000.495    1803.859
     3899.932     11053.820    1772.971      3936.984     11083.694    1817.823
     4040.810     11134.141    1786.990      4080.165     11167.298    1837.084
     4186.212     11218.658    1812.555      4228.188     11255.202    1863.869
     4332.829     11304.672    1838.375      4375.504     11342.678    1887.507
     4469.933     11382.409    1848.743      4514.590     11422.750    1901.152
     4612.755     11465.398    1865.983      4652.610     11501.688    1914.984
     4760.994     11553.425    1892.758      4796.721     11586.116    1935.761
     4904.539     11637.216    1910.700      4940.215     11670.001    1952.766
     5043.057     11716.399    1917.125      5077.080     11747.814    1957.251
     5181.626     11795.611    1919.288      5210.375     11822.302    1955.420
     5322.908     11877.337    1923.662      5347.059     11899.897    1956.956
     5463.879     11958.780    1928.127      5484.631     11978.304    1959.537
     5604.336     12039.740    1927.884      5622.649     12057.112    1959.410
       79.450      8670.466    1738.109        79.616      8670.172    1771.395
      219.476      8751.505    1738.558       220.286      8751.236    1772.651
      359.403      8832.529    1740.624       361.192      8832.258    1779.247
      499.244      8913.531    1744.524       502.488      8913.291    1787.313
      639.130      8994.516    1748.423       643.817      8994.371    1788.409
      778.838      9075.498    1749.215       785.023      9075.468    1784.257
      918.657      9156.472    1749.946       927.233      9156.586    1783.442
     1058.530      9237.444    1750.950      1069.885      9237.753    1784.209
     1197.263      9318.366    1748.865      1211.580      9318.931    1782.697
     1335.507      9399.228    1745.441      1353.512      9400.153    1780.987
     1473.698      9480.036    1742.476      1493.164      9481.279    1775.876
     1612.083      9560.801    1741.347      1633.604      9562.465    1773.658
     1750.281      9641.485    1740.873      1774.260      9643.699    1773.136
     1888.586      9722.097    1740.914      1916.913      9725.199    1776.413
     2027.688      9802.710    1742.781      2061.352      9807.081    1782.167
     2166.939      9883.247    1744.057      2203.049      9888.825    1783.824
     2305.423      9963.527    1743.430      2341.322      9970.137    1781.965
     2445.150     10043.882    1745.185      2479.875     10051.501    1782.247
     2587.364     10124.747    1752.193      2620.448     10133.365    1787.100
     2728.222     10205.263    1760.618      2764.228     10216.337    1798.285
     2868.152     10285.386    1767.045      2911.078     10300.856    1811.566
     3006.952     10364.880    1769.644      3053.906     10384.490    1818.341
     3146.660     10444.532    1769.971      3192.688     10466.496    1816.515
     3287.438     10524.613    1768.618      3331.138     10548.097    1811.866
     3429.373     10605.408    1766.989      3468.478     10628.737    1806.521
     3570.021     10685.547    1764.774      3603.579     10707.493    1800.784
     3708.301     10764.075    1763.384      3740.371     10786.802    1799.803
     3846.017     10842.030    1765.705      3877.730     10866.119    1804.304
     3985.016     10920.902    1773.496      4018.121     10947.530    1818.168
     4124.514     11000.271    1787.685      4158.596     11028.932    1837.031
     4268.401     11083.593    1813.175      4303.692     11114.257    1863.048
     4412.596     11167.508    1838.397      4449.128     11199.967    1886.525
     4549.104     11244.723    1848.724      4588.547     11280.249    1900.702
     4691.528     11327.347    1865.859      4727.009     11359.527    1914.449
     4838.767     11414.430    1892.408      4870.686     11443.485    1934.730
     4981.979     11497.891    1910.491      5015.508     11528.513    1952.181
     5121.149     11577.667    1917.088      5154.200     11607.971    1957.265
     5260.663     11657.753    1919.299      5288.829     11683.698    1955.560
     5402.806     11740.265    1923.703      5426.330     11762.056    1957.056
     5544.131     11822.032    1928.147      5564.504     11841.027    1959.643
     5684.432     11902.846    1927.903      5702.584     11919.905    1959.510
      158.894      8532.865    1736.294       159.092      8532.519    1769.310
      298.866      8613.906    1736.344       299.725      8613.612    1768.139
      438.640      8694.936    1736.943       440.753      8694.615    1776.522
      578.383      8775.924    1740.654       582.388      8775.638    1786.433
      718.325      8856.892    1745.308       723.586      8856.743    1784.775
      857.857      8937.867    1745.234       864.295      8937.851    1777.867
      997.253      9018.830    1744.644      1006.679      9018.967    1778.105
     1137.705      9099.810    1748.042      1149.680      9100.138    1780.091
     1276.244      9180.724    1746.269      1291.239      9181.303    1778.584
     1414.575      9261.595    1743.937      1433.866      9262.546    1778.804
     1552.007      9342.368    1740.623      1572.395      9343.601    1772.624
     1690.990      9423.184    1740.514      1715.690      9424.973    1774.880
     1828.572      9503.836    1738.827      1853.375      9505.966    1770.471
     1965.859      9584.364    1737.399      1993.905      9587.208    1771.238
     2106.628      9665.173    1740.963      2140.734      9669.269    1779.674
     2246.125      9745.777    1742.185      2283.500      9751.122    1782.012
     2382.058      9825.673    1738.409      2419.464      9832.071    1776.779
     2521.816      9905.990    1739.383      2559.973      9913.805    1777.805
     2666.074      9987.257    1747.270      2697.808      9995.018    1778.775
     2808.608     10068.257    1756.596      2844.974     10078.830    1792.267
     2947.986     10148.279    1761.706      2994.210     10164.144    1806.612
     3085.894     10227.483    1762.830      3136.618     10247.815    1812.482
     3227.485     10307.981    1764.796      3275.221     10330.015    1811.520
     3366.460     10387.180    1762.028      3409.234     10409.574    1803.887
     3509.781     10468.709    1762.540      3548.667     10491.465    1801.798
     3649.698     10548.399    1760.520      3681.469     10568.905    1794.592
     3786.500     10625.883    1757.937      3820.252     10649.617    1796.104
     3923.500     10703.212    1760.447      3955.117     10727.145    1798.731
     4063.704     10782.956    1771.607      4097.338     10809.992    1817.190
     4199.628     10859.315    1782.272      4234.613     10888.737    1833.975
     4346.007     10944.724    1812.407      4381.006     10975.111    1863.753
     4495.898     11033.676    1846.564      4529.527     11063.491    1892.814
     4627.414     11106.479    1850.833      4665.043     11140.241    1902.159
     4767.076     11186.609    1864.659      4798.933     11215.324    1909.148
     4919.830     11278.618    1898.693      4950.415     11306.213    1939.247
     5062.542     11361.589    1915.091      5097.250     11392.929    1956.979
     5197.053     11437.155    1915.410      5230.503     11467.409    1954.392
     5335.118     11515.922    1915.057      5364.070     11542.179    1950.613
     5479.513     11600.433    1921.076      5503.138     11621.940    1953.000
     5621.475     11682.747    1925.565      5641.833     11701.375    1955.280
     5761.993     11763.742    1925.344      5780.213     11780.526    1955.150
      238.357      8395.230    1736.751       238.602      8394.802    1771.787
      378.332      8476.283    1736.036       379.357      8475.915    1769.889
      518.059      8557.319    1736.109       520.298      8556.970    1772.689
      658.018      8638.285    1741.661       662.138      8637.989    1782.359
      797.396      8719.274    1740.964       803.094      8719.118    1777.781
      936.401      8800.241    1738.912       943.736      8800.228    1771.149
     1075.929      8881.192    1739.786      1086.462      8881.347    1773.034
     1216.213      8962.161    1743.486      1230.916      8962.553    1778.814
     1355.645      9043.105    1744.700      1372.329      9043.721    1777.035
     1496.015      9124.081    1746.719      1516.176      9125.018    1779.564
     1636.306      9205.054    1747.915      1658.850      9206.325    1779.889
     1772.299      9285.740    1743.349      1798.107      9287.470    1776.257
     1906.078      9366.146    1736.725      1931.799      9368.179    1767.501
     2043.771      9446.729    1735.656      2075.447      9449.675    1772.124
     2184.134      9527.490    1738.695      2218.934      9531.317    1776.604
     2325.661      9608.359    1741.810      2361.681      9613.082    1778.351
     2465.006      9688.891    1740.745      2502.340      9694.764    1776.374
     2608.916      9770.163    1744.666      2655.046      9778.892    1786.528
     2750.330      9851.059    1748.463      2792.336      9860.607    1785.079
     2884.795      9930.081    1748.431      2923.336      9940.570    1781.536
     3022.784     10009.535    1750.924      3064.777     10023.148    1787.402
     3162.041     10089.048    1752.426      3206.207     10105.938    1792.136
     3308.334     10171.403    1758.492      3356.247     10192.725    1802.740
     3455.825     10255.021    1764.775      3498.524     10276.801    1804.859
     3594.418     10334.392    1762.804      3634.835     10357.663    1802.167
     3730.280     10411.769    1759.061      3770.172     10437.322    1800.173
     3871.292     10492.236    1762.737      3911.008     10520.141    1805.145
     4009.643     10570.848    1768.268      4050.961     10602.261    1815.822
     4146.475     10648.172    1777.918      4186.045     10680.244    1829.296
     4286.816     10728.413    1797.287      4325.404     10761.148    1852.140
     4435.892     10816.500    1831.852      4466.379     10843.126    1875.694
     4573.455     10894.746    1848.682      4603.534     10921.493    1890.151
     4709.602     10971.702    1860.036      4741.515     11000.331    1903.606
     4857.704     11059.444    1886.359      4885.316     11084.251    1924.226
     5006.409     11147.747    1913.462      5037.036     11175.216    1952.012
     5137.993     11220.708    1914.544      5170.725     11250.005    1951.702
     5271.341     11295.283    1912.988      5309.088     11329.025    1954.371
     5413.781     11377.988    1916.815      5441.845     11403.076    1949.432
     5556.084     11460.569    1919.218      5578.299     11480.458    1947.682
     5699.175     11543.859    1924.210      5719.469     11562.086    1952.145
     5839.938     11625.062    1923.947      5858.071     11641.434    1951.911
      317.837      8257.567    1737.609       318.118      8257.075    1772.899
      457.916      8338.614    1738.022       459.083      8338.183    1772.416
      597.543      8419.690    1735.054       599.954      8419.307    1769.541
      736.887      8500.702    1734.601       740.988      8500.405    1769.588
      876.062      8581.671    1734.407       882.108      8581.504    1767.641
     1015.863      8662.616    1736.824      1024.026      8662.599    1767.385
     1154.254      8743.555    1734.736      1165.322      8743.709    1765.165
     1293.178      8824.479    1736.308      1308.799      8824.875    1769.755
     1431.294      8905.362    1736.786      1450.561      8906.028    1770.456
     1572.833      8986.360    1742.184      1596.055      8987.362    1776.437
     1712.863      9067.303    1744.060      1740.359      9068.728    1779.409
     1851.230      9148.136    1743.329      1879.521      9149.866    1776.326
     1988.207      9228.824    1740.714      2017.809      9230.948    1773.609
     2126.761      9309.557    1740.312      2161.729      9312.500    1778.294
     2263.275      9390.014    1739.181      2298.202      9393.490    1775.224
     2403.044      9470.687    1740.115      2437.225      9474.746    1772.561
     2545.266      9551.632    1740.864      2588.162      9557.760    1777.902
     2686.718      9632.491    1741.106      2732.748      9640.429    1777.471
     2828.528      9713.431    1743.504      2877.940      9723.719    1779.997
     2959.319      9791.634    1739.368      3008.539      9804.003    1775.089
     3096.506      9870.682    1739.539      3149.826      9886.812    1779.638
     3238.341      9950.829    1741.665      3292.796      9970.508    1785.591
     3385.154     10033.067    1747.379      3430.395     10052.365    1785.979
     3532.458     10116.266    1754.305      3576.349     10138.041    1792.871
     3676.472     10198.496    1759.505      3722.704     10224.748    1801.672
     3816.458     10278.651    1762.373      3860.450     10306.769    1804.312
     3953.595     10356.772    1764.124      4001.660     10390.769    1811.042
     4092.584     10435.994    1772.075      4133.184     10467.299    1815.243
     4226.700     10511.182    1781.109      4265.945     10543.649    1828.344
     4378.155     10601.140    1816.496      4427.162     10643.651    1879.743
     4523.671     10686.592    1846.647      4562.027     10720.675    1899.052
     4649.865     10754.747    1849.451      4686.260     10787.486    1898.742
     4792.725     10837.772    1872.094      4827.206     10868.865    1917.818
     4949.548     10933.368    1910.045      4979.045     10959.881    1947.938
     5086.357     11010.930    1919.708      5121.766     11042.596    1960.844
     5213.694     11080.111    1915.336      5252.936     11115.024    1956.578
     5350.372     11157.689    1916.549      5384.057     11187.527    1951.164
     5494.422     11241.805    1921.136      5517.150     11261.873    1946.278
     5633.838     11321.823    1919.486      5659.265     11344.240    1950.620
     5777.333     11405.432    1924.197      5799.344     11424.849    1952.824
     5918.348     11486.849    1923.918      5938.117     11504.343    1952.721
      397.271      8119.982    1732.044       397.580      8119.443    1766.654
      537.374      8200.987    1735.047       538.718      8200.485    1770.526
      677.315      8282.013    1736.501       679.894      8281.600    1768.901
      816.413      8363.071    1732.882       820.599      8362.765    1763.529
      955.596      8444.044    1732.652       960.863      8443.896    1757.121
     1093.914      8524.999    1730.104      1101.706      8524.976    1754.882
     1232.138      8605.918    1729.680      1245.835      8606.093    1762.437
     1371.043      8686.833    1732.310      1392.260      8687.331    1773.131
     1509.438      8767.723    1734.270      1534.521      8768.523    1774.508
     1649.432      8848.655    1738.184      1678.458      8849.800    1777.797
     1786.961      8929.468    1738.126      1815.737      8930.820    1772.348
     1928.175      9010.435    1741.601      1957.079      9012.027    1772.722
     2070.662      9091.489    1745.177      2103.712      9093.614    1778.989
     2209.135      9172.278    1744.553      2243.750      9174.884    1779.236
     2345.829      9252.853    1743.264      2382.845      9256.143    1778.760
     2486.450      9333.709    1743.767      2523.369      9337.625    1776.001
     2624.428      9414.214    1739.451      2667.255      9419.687    1772.441
     2768.257      9495.461    1739.556      2816.311      9502.897    1771.981
     2900.744      9574.741    1733.998      2954.451      9584.807    1767.059
     3033.228      9653.293    1730.173      3087.908      9665.775    1763.370
     3169.997      9732.067    1728.470      3232.368      9749.432    1768.667
     3317.736      9813.834    1732.930      3383.191      9835.942    1779.651
     3461.747      9894.762    1735.499      3520.281      9918.511    1780.943
     3608.100      9977.116    1742.396      3651.241      9997.857    1777.219
     3753.415     10059.683    1750.186      3795.179     10083.093    1785.087
     3895.559     10140.974    1756.462      3939.692     10169.264    1794.220
     4033.089     10219.270    1760.503      4082.819     10255.009    1804.246
     4171.564     10297.998    1769.607      4214.343     10331.884    1811.483
     4310.492     10377.071    1785.654      4354.015     10414.358    1834.785
     4449.738     10456.644    1807.563      4515.538     10516.016    1885.990
     4603.091     10549.518    1847.130      4639.397     10583.021    1895.060
     4733.795     10621.513    1858.256      4767.093     10652.356    1902.636
     4886.956     10714.083    1896.782      4919.902     10744.267    1938.849
     5034.973     10801.656    1922.729      5066.387     10830.059    1959.964
     5157.560     10866.339    1915.684      5201.170     10905.351    1962.194
     5288.739     10938.965    1915.626      5334.395     10979.447    1960.166
     5429.627     11020.283    1920.148      5463.285     11049.896    1952.974
     5571.654     11102.604    1921.614      5599.548     11126.983    1951.505
     5711.081     11182.659    1919.210      5738.625     11206.607    1952.036
     5855.862     11267.354    1925.125      5879.402     11287.769    1954.263
     5997.058     11348.923    1924.813      6018.271     11367.328    1954.156
      476.674      7982.454    1723.091       476.982      7981.916    1754.447
      616.657      8063.423    1727.482       618.132      8062.875    1762.441
      756.756      8144.388    1732.806       759.067      8144.019    1758.512
      896.153      8225.424    1731.749       899.678      8225.167    1754.009
     1035.362      8306.412    1731.357      1039.761      8306.286    1748.799
     1172.962      8387.382    1727.427      1180.592      8387.353    1748.349
     1311.168      8468.303    1728.015      1325.562      8468.464    1758.536
     1448.304      8549.185    1728.011      1471.399      8549.676    1768.791
     1586.939      8630.081    1731.248      1612.201      8630.810    1769.370
     1725.919      8710.977    1734.662      1759.271      8712.157    1777.996
     1864.548      8791.842    1737.036      1893.529      8793.053    1769.825
     2004.415      8872.738    1739.728      2032.894      8874.126    1768.517
     2148.071      8953.829    1744.596      2185.374      8955.946    1779.632
     2289.219      9034.800    1746.179      2327.434      9037.335    1780.617
     2429.165      9115.688    1746.542      2468.661      9118.777    1780.676
     2570.678      9196.708    1745.758      2611.644      9200.525    1778.008
     2705.563      9277.027    1737.579      2758.019      9282.931    1773.876
     2846.149      9357.860    1733.612      2897.928      9364.960    1763.386
     2968.340      9435.601    1721.953      3028.160      9445.537    1752.379
     3103.292      9514.462    1718.613      3173.011      9528.671    1754.450
     3250.153      9595.472    1721.326      3324.944      9614.357    1763.084
     3399.511      9677.620    1725.537      3464.797      9697.970    1766.758
     3537.764      9756.396    1723.814      3586.199      9774.900    1757.595
     3677.036      9835.001    1725.875      3721.550      9855.608    1758.361
     3823.129      9916.912    1734.666      3871.781      9943.777    1771.396
     3968.029      9998.989    1743.738      4015.694     10029.746    1780.510
     4110.734     10080.320    1753.239      4158.829     10115.805    1791.890
     4249.151     10158.663    1763.105      4293.273     10195.207    1803.572
     4392.956     10241.917    1783.958      4431.103     10276.541    1825.933
     4521.464     10311.415    1793.512      4599.153     10386.122    1886.061
     4688.827     10418.887    1851.629      4722.266     10451.826    1895.180
     4830.810     10501.383    1880.081      4862.748     10532.553    1922.324
     4982.160     10592.146    1917.164      5011.176     10619.557    1953.056
     5112.105     10662.611    1922.132      5146.964     10694.556    1960.898
     5234.207     10726.633    1916.341      5280.962     10768.605    1962.719
     5366.178     10799.961    1917.294      5414.673     10842.882    1961.860
     5506.663     10880.929    1920.903      5546.156     10915.497    1958.160
     5647.825     10962.508    1920.601      5680.381     10990.713    1955.062
     5790.658     11045.530    1921.262      5818.935     11069.810    1954.810
     5935.777     11130.472    1927.630      5961.417     11152.352    1958.319
     6077.070     11212.119    1927.289      6100.212     11231.816    1958.175
      556.098      7844.888    1716.720       556.446      7844.279    1748.998
      695.913      7925.867    1720.101       697.365      7925.336    1751.114
      835.715      8006.838    1724.405       838.187      8006.450    1749.174
      975.029      8087.840    1725.375       978.635      8087.579    1745.629
     1114.684      8168.793    1728.320      1120.025      8168.638    1747.028
     1253.398      8249.761    1728.437      1262.141      8249.717    1749.793
     1391.287      8330.703    1728.625      1407.459      8330.855    1759.889
     1528.151      8411.603    1728.608      1550.830      8412.025    1766.216
     1664.367      8492.458    1728.554      1693.492      8493.194    1770.721
     1802.153      8573.328    1731.188      1833.128      8574.279    1770.425
     1943.132      8654.287    1737.205      1973.707      8655.387    1770.968
     2079.027      8735.032    1736.437      2116.558      8736.602    1772.766
     2217.685      8815.834    1736.957      2258.168      8817.805    1772.162
     2366.253      8897.149    1743.818      2414.713      8899.910    1782.884
     2515.205      8978.632    1748.742      2564.406      8981.936    1786.011
     2654.979      9059.596    1743.964      2707.009      9063.752    1780.289
     2785.848      9139.713    1732.100      2841.154      9145.051    1766.799
     2923.916      9220.295    1725.302      2997.356      9229.034    1761.724
     3059.039      9300.298    1719.324      3137.081      9311.651    1753.152
     3188.744      9378.836    1713.036      3262.667      9392.104    1746.925
     3331.444      9459.115    1713.634      3409.426      9476.688    1752.394
     3470.788      9538.339    1712.181      3533.750      9556.157    1747.579
     3606.494      9615.700    1709.596      3667.666      9637.359    1747.262
     3746.539      9693.680    1712.102      3806.791      9720.158    1751.455
     3891.090      9773.455    1719.281      3939.946      9799.798    1752.710
     4037.904      9855.215    1729.186      4080.165      9882.656    1759.397
     4178.042      9933.232    1736.697      4226.875      9970.570    1773.891
     4317.826     10010.968    1746.248      4362.601     10050.506    1785.999
     4458.417     10090.011    1759.912      4495.625     10126.785    1800.909
     4592.037     10162.734    1772.301      4685.239     10262.232    1887.910
     4718.883     10229.075    1779.030      4816.795     10336.206    1907.081
     4930.487     10386.926    1901.013      4962.226     10420.429    1943.294
     5069.385     10463.936    1922.720      5099.505     10493.746    1959.586
     5192.020     10526.243    1921.025      5229.802     10561.654    1961.544
     5314.713     10590.387    1917.909      5362.826     10633.864    1963.284
     5446.459     10663.478    1919.399      5496.055     10707.284    1963.169
     5585.979     10743.594    1922.532      5628.640     10780.695    1962.125
     5729.516     10827.206    1924.927      5764.801     10857.478    1962.119
     5874.550     10912.051    1928.216      5904.218     10937.191    1963.534
     6018.713     10996.103    1933.370      6046.048     11019.044    1965.404
     6160.022     11077.741    1933.082      6184.675     11098.314    1965.362
      635.552      7707.271    1713.138       635.927      7706.614    1745.707
      775.124      7788.320    1712.903       776.803      7787.723    1745.634
      914.684      7869.281    1717.416       917.651      7868.827    1744.776
     1054.280      7950.227    1722.007      1058.254      7949.944    1742.648
     1192.676      8031.216    1721.565      1199.483      8031.015    1743.613
     1330.905      8112.160    1722.611      1341.458      8112.093    1746.483
     1471.084      8193.104    1728.422      1487.609      8193.220    1758.288
     1610.068      8274.059    1732.247      1632.231      8274.399    1767.292
     1747.076      8354.975    1733.319      1778.383      8355.630    1777.357
     1882.952      8435.846    1733.482      1913.537      8436.614    1771.797
     2019.784      8516.709    1735.059      2058.128      8517.826    1777.003
     2154.989      8597.470    1734.053      2194.809      8598.818    1771.454
     2291.757      8678.212    1732.810      2341.516      8680.186    1773.366
     2441.143      8759.462    1738.311      2498.578      8762.155    1780.138
     2590.867      8840.858    1740.312      2645.498      8843.901    1776.867
     2734.544      8922.046    1735.291      2792.635      8925.894    1771.005
     2872.871      9002.921    1726.085      2930.399      9007.459    1757.599
     3005.362      9083.212    1714.896      3084.229      9090.813    1749.604
     3140.113      9163.321    1707.786      3220.479      9173.184    1742.591
     3270.614      9242.330    1702.902      3351.144      9254.854    1738.391
     3408.452      9321.806    1702.733      3494.534      9338.822    1742.221
     3542.564      9399.719    1700.278      3624.140      9420.272    1741.449
     3680.840      9477.619    1700.715      3746.221      9498.593    1736.660
     3817.871      9554.014    1701.975      3879.843      9579.136    1738.357
     3963.719      9633.147    1709.204      4018.674      9661.436    1743.729
     4114.879      9716.047    1720.614      4155.013      9742.083    1748.023
     4250.593      9789.425    1724.004      4298.720      9827.657    1760.063
     4397.350      9871.812    1737.285      4436.494      9908.969    1772.085
     4534.945      9946.572    1744.506      4566.499      9981.362    1780.366
     4670.874     10018.377    1754.208      4702.036     10058.466    1797.158
     4796.875     10082.092    1761.800      4895.451     10212.232    1898.673
     5007.668     10252.057    1888.760      5039.134     10289.179    1931.949
     5146.487     10326.312    1911.855      5179.481     10360.745    1952.495
     5271.743     10389.718    1915.474      5317.154     10433.316    1963.256
     5398.608     10457.199    1918.597      5448.635     10502.680    1964.218
     5530.702     10530.473    1921.869      5583.670     10577.027    1967.446
     5666.866     10607.638    1923.552      5711.631     10646.167    1964.741
     5814.978     10695.068    1932.397      5851.129     10725.664    1970.047
     5959.262     10779.146    1936.330      5989.644     10804.480    1971.642
     6103.262     10862.953    1940.126      6131.685     10886.361    1972.679