NOECHO

-- =============================================================================
-- 
-- Exported from Reek_base_sim
-- 
-- Exported by user asny from RMS11 at 2020-02-19 16:53:43
-- 
-- =============================================================================

MAPUNITS
'METRES  ' /

MAPAXES
456514.883 5939172.667
456514.883 5927115.548
467218.241 5927115.548 /

GRIDUNIT
'METRES  ' '        ' /

SPECGRID
  40  64  14   1  F  /

GDORIENT
INC INC INC DOWN RIGHT /

COORD
        0.000      8808.125    1733.768         0.164      8807.781    1761.666
      140.031      8889.164    1734.779       140.810      8888.853    1761.583
      279.992      8970.188    1737.781       281.589      8969.884    1765.117
      419.990      9051.185    1742.254       422.923      9050.886    1772.673
      559.876      9132.183    1745.093       564.320      9131.948    1775.099
      699.352      9213.182    1746.030       705.992      9213.032    1777.854
      838.541      9294.162    1746.726       848.010      9294.140    1781.432
      977.697      9375.116    1747.395       989.760      9375.275    1782.107
     1116.443      9456.033    1746.247      1130.210      9456.401    1777.423
     1254.791      9536.894    1744.039      1272.145      9537.583    1776.839
     1393.203      9617.706    1742.146      1415.137      9618.865    1778.618
     1531.578      9698.455    1741.127      1555.553      9700.057    1775.937
     1670.621      9779.188    1741.567      1695.261      9781.214    1772.349
     1808.948      9859.785    1740.853      1833.600      9862.248    1767.981
     1946.321      9940.147    1739.919      1973.085      9943.388    1766.415
     2085.450     10020.559    1741.959      2117.260     10025.240    1770.722
     2222.736     10100.479    1742.651      2256.937     10106.610    1772.225
     2361.133     10180.304    1744.102      2398.278     10188.399    1776.745
     2502.406     10260.585    1748.832      2542.127     10271.034    1785.201
     2644.312     10341.019    1755.749      2683.734     10353.406    1793.005
     2784.699     10420.927    1760.991      2825.246     10435.952    1799.816
     2923.999     10500.267    1763.356      2966.971     10518.753    1802.679
     3063.241     10579.378    1763.708      3108.424     10601.565    1804.025
     3203.457     10658.865    1763.404      3246.722     10682.720    1802.397
     3344.784     10739.019    1763.077      3384.129     10763.032    1799.899
     3484.297     10818.097    1761.322      3520.458     10842.250    1797.522
     3622.811     10896.404    1761.018      3657.733     10921.674    1798.793
     3762.780     10975.733    1765.182      3798.467     11003.426    1807.602
     3904.193     11056.364    1774.266      3936.515     11082.958    1817.051
     4044.431     11136.267    1787.791      4076.550     11163.943    1833.132
     4189.895     11221.033    1814.861      4226.089     11253.299    1865.307
     4334.962     11305.872    1841.485      4374.913     11342.287    1894.922
     4470.800     11382.455    1851.906      4512.513     11420.960    1905.994
     4613.452     11465.403    1870.507      4653.715     11502.795    1922.144
     4761.057     11553.036    1897.081      4797.648     11587.117    1943.345
     4904.113     11636.472    1914.018      4940.280     11670.235    1958.780
     5043.005     11716.022    1920.048      5077.109     11747.960    1964.046
     5181.649     11795.330    1921.121      5210.517     11822.470    1962.726
     5322.321     11876.532    1923.827      5346.693     11899.560    1963.443
     5463.430     11958.145    1928.800      5484.537     11978.208    1966.450
     5604.080     12039.316    1928.523      5622.662     12057.119    1966.302
       79.454      8670.483    1733.796        79.644      8670.149    1761.669
      219.523      8751.522    1734.817       220.315      8751.215    1761.611
      359.550      8832.541    1737.826       361.168      8832.241    1765.152
      499.664      8913.534    1742.292       502.631      8913.242    1772.663
      639.717      8994.535    1745.137       644.159      8994.311    1775.131
      779.347      9075.540    1746.075       785.926      9075.404    1777.879
      918.635      9156.530    1746.783       927.986      9156.521    1781.455
     1057.849      9237.495    1747.435      1069.762      9237.661    1782.101
     1196.662      9318.424    1746.286      1210.177      9318.790    1777.434
     1335.070      9399.303    1744.084      1352.054      9399.969    1776.847
     1473.514      9480.133    1742.204      1494.774      9481.232    1778.618
     1612.105      9560.919    1741.199      1635.128      9562.412    1775.933
     1751.614      9641.718    1741.607      1775.048      9643.577    1772.346
     1890.746      9722.436    1740.907      1913.834      9724.652    1767.973
     2029.145      9802.992    1740.063      2053.855      9805.865    1766.447
     2169.037      9883.621    1742.060      2198.462      9887.782    1770.756
     2307.207      9963.862    1742.787      2339.152      9969.377    1772.256
     2446.466     10044.094    1744.364      2481.330     10051.438    1776.913
     2588.191     10124.768    1749.228      2625.360     10134.257    1785.396
     2729.943     10205.481    1756.107      2767.714     10217.047    1793.203
     2870.810     10285.922    1761.267      2910.622     10300.359    1800.009
     3010.840     10365.978    1763.519      3052.287     10383.495    1802.802
     3150.604     10445.796    1763.824      3193.104     10466.364    1804.098
     3291.009     10525.855    1763.515      3330.913     10547.597    1802.434
     3432.431     10606.532    1763.062      3468.737     10628.477    1799.879
     3572.413     10686.393    1761.314      3605.873     10708.563    1797.634
     3710.443     10764.842    1761.183      3743.237     10788.418    1799.203
     3849.120     10843.604    1765.636      3882.864     10869.657    1808.200
     3988.887     10923.208    1774.698      4019.170     10948.026    1817.445
     4128.120     11002.456    1788.536      4157.808     11027.952    1833.690
     4272.297     11086.198    1815.563      4304.967     11115.231    1865.220
     4415.274     11169.188    1841.576      4451.702     11202.282    1894.313
     4550.438     11245.179    1851.926      4589.025     11280.661    1905.821
     4692.754     11327.813    1870.486      4729.855     11362.107    1921.773
     4839.471     11414.587    1896.872      4873.124     11445.752    1942.598
     4982.049     11497.561    1913.866      5016.842     11529.824    1958.464
     5121.454     11577.591    1920.031      5154.980     11608.751    1964.067
     5260.785     11657.548    1921.139      5289.280     11684.114    1962.870
     5401.963     11739.221    1923.860      5426.085     11761.806    1963.598
     5543.297     11821.040    1928.820      5564.392     11840.900    1966.587
     5683.667     11901.947    1928.542      5702.552     11919.854    1966.432
      158.902      8532.873    1732.294       159.139      8532.460    1762.108
      298.912      8613.923    1732.268       299.813      8613.568    1759.480
      438.845      8694.941    1734.439       440.678      8694.604    1761.979
      579.033      8775.911    1739.747       582.679      8775.566    1772.948
      719.056      8856.907    1742.241       723.845      8856.684    1771.513
      858.546      8937.911    1743.017       865.631      8937.785    1774.236
      997.584      9018.894    1743.549      1007.677      9018.906    1777.700
     1137.107      9099.859    1745.654      1150.547      9100.061    1781.558
     1275.704      9180.784    1744.635      1289.215      9181.146    1773.455
     1414.152      9261.668    1743.183      1432.090      9262.345    1775.125
     1551.740      9342.467    1740.401      1575.654      9343.633    1778.086
     1689.986      9423.237    1739.090      1715.381      9424.770    1774.769
     1830.354      9504.099    1740.406      1854.925      9505.895    1771.034
     1968.907      9584.785    1738.628      1991.131      9586.736    1763.932
     2107.434      9665.374    1737.580      2131.618      9667.938    1763.135
     2248.261      9746.131    1740.137      2278.024      9749.975    1768.902
     2384.662      9826.148    1738.551      2414.815      9830.929    1765.824
     2524.214      9906.418    1739.917      2559.856      9913.373    1771.951
     2665.745      9986.985    1744.028      2705.849      9996.560    1780.996
     2808.273     10067.838    1750.316      2846.295     10078.829    1785.377
     2950.825     10148.814    1755.654      2992.433     10163.192    1793.554
     3090.755     10228.876    1757.158      3132.158     10245.703    1794.999
     3230.797     10308.851    1757.645      3274.422     10329.324    1798.594
     3370.624     10388.622    1757.090      3409.524     10409.326    1795.070
     3512.763     10469.694    1757.889      3548.546     10490.950    1794.108
     3652.366     10549.345    1756.159      3685.230     10570.848    1791.376
     3787.976     10626.105    1754.057      3819.959     10648.897    1790.314
     3925.942     10704.226    1758.766      3961.389     10731.432    1802.310
     4067.941     10785.539    1772.345      4096.655     10808.979    1811.927
     4202.953     10861.183    1781.538      4232.307     10886.318    1825.441
     4350.064     10947.408    1813.869      4381.495     10975.247    1861.383
     4498.505     11035.318    1849.006      4533.884     11067.319    1900.099
     4627.379     11105.631    1851.402      4663.829     11138.952    1902.337
     4768.257     11186.934    1868.578      4804.163     11219.861    1917.867
     4921.568     11279.704    1903.339      4955.434     11310.739    1947.251
     5062.894     11361.492    1918.053      5097.196     11392.900    1959.481
     5199.093     11438.595    1920.221      5232.797     11469.455    1961.723
     5336.351     11516.660    1918.213      5365.388     11543.280    1957.923
     5477.784     11598.545    1920.541      5501.889     11620.699    1957.342
     5619.865     11681.023    1926.023      5641.228     11700.734    1960.942
     5760.387     11762.057    1925.739      5779.652     11779.936    1960.739
      238.376      8395.220    1733.026       238.655      8394.733    1763.706
      378.349      8476.308    1730.717       379.271      8475.933    1755.874
      518.198      8557.333    1731.889       520.327      8556.937    1760.470
      658.203      8638.308    1735.622       661.917      8637.959    1765.621
      798.020      8719.298    1737.572       803.706      8719.042    1768.579
      936.669      8800.301    1736.153       944.292      8800.177    1766.228
     1075.521      8881.259    1737.799      1087.610      8881.285    1774.524
     1215.776      8962.217    1742.732      1228.717      8962.414    1774.059
     1355.314      9043.165    1744.438      1370.656      9043.562    1774.186
     1495.422      9124.118    1746.143      1515.827      9124.846    1778.867
     1634.520      9205.022    1745.598      1658.995      9206.129    1779.957
     1772.507      9285.834    1743.552      1797.877      9287.237    1775.603
     1909.949      9366.553    1740.869      1934.796      9368.201    1769.317
     2048.333      9447.259    1738.748      2074.099      9449.299    1766.381
     2188.353      9528.032    1738.988      2212.712      9530.355    1763.765
     2326.763      9608.564    1738.699      2352.953      9611.611    1763.048
     2465.426      9688.973    1738.273      2498.612      9693.739    1766.641
     2605.375      9769.416    1739.266      2648.030      9777.023    1774.377
     2748.971      9850.531    1744.132      2791.924      9860.005    1779.316
     2887.177      9930.398    1744.938      2928.688      9941.610    1778.893
     3026.419     10010.246    1745.803      3064.390     10022.646    1777.179
     3166.263     10090.051    1746.366      3212.141     10107.878    1785.714
     3313.249     10172.907    1753.002      3357.815     10193.140    1793.291
     3456.868     10254.814    1756.925      3494.500     10274.408    1792.552
     3594.562     10333.659    1754.937      3631.843     10355.527    1791.243
     3734.646     10413.739    1755.671      3766.439     10434.431    1787.783
     3871.384     10491.458    1756.299      3906.902     10516.759    1793.996
     4009.084     10569.583    1762.292      4047.144     10598.888    1806.387
     4147.129     10647.841    1773.007      4176.684     10672.127    1811.533
     4292.813     10732.688    1799.561      4321.855     10757.722    1840.813
     4438.157     10817.737    1830.314      4463.841     10840.567    1867.632
     4576.090     10896.336    1850.439      4604.178     10921.756    1890.097
     4709.384     10970.701    1859.953      4739.396     10998.072    1901.177
     4858.260     11059.324    1888.471      4885.392     11084.074    1924.616
     5005.754     11146.691    1913.799      5037.521     11175.582    1951.899
     5137.708     11219.944    1916.259      5172.281     11251.279    1954.710
     5274.472     11297.602    1918.875      5307.550     11327.501    1956.453
     5416.467     11379.993    1922.613      5440.739     11401.899    1953.212
     5557.281     11461.312    1923.946      5578.472     11480.439    1953.714
     5698.215     11542.729    1927.163      5719.709     11562.169    1959.166
     5838.898     11623.908    1926.969      5858.230     11641.464    1958.892
      317.860      8257.549    1733.617       318.164      8257.020    1763.382
      457.982      8338.607    1733.454       459.130      8338.136    1761.810
      597.865      8419.665    1732.826       600.296      8419.210    1762.181
      737.137      8500.726    1730.151       741.395      8500.330    1760.712
      876.335      8581.717    1730.739       883.329      8581.410    1764.381
     1015.364      8662.682    1732.884      1024.359      8662.542    1764.271
     1154.861      8743.631    1737.155      1166.111      8743.657    1767.627
     1292.172      8824.547    1735.586      1305.978      8824.750    1765.667
     1432.214      8905.483    1739.701      1450.831      8905.938    1772.161
     1573.013      8986.445    1743.336      1596.294      8987.213    1776.492
     1714.825      9067.455    1746.654      1740.996      9068.537    1778.883
     1854.531      9148.380    1746.646      1882.450      9149.773    1777.661
     1993.568      9229.248    1745.714      2022.467      9230.961    1775.295
     2128.407      9309.783    1740.265      2162.205      9312.161    1773.273
     2265.452      9390.340    1737.554      2298.532      9393.132    1768.737
     2403.738      9470.869    1736.613      2436.683      9474.262    1765.114
     2544.579      9551.559    1736.915      2584.340      9556.641    1767.876
     2686.774      9632.403    1738.391      2728.937      9639.155    1769.020
     2828.531      9713.204    1740.288      2876.462      9722.811    1774.007
     2961.195      9791.778    1735.810      3011.416      9804.266    1771.155
     3099.459      9871.073    1734.321      3146.521      9885.420    1768.813
     3240.971      9951.102    1735.040      3285.410      9967.459    1769.981
     3386.775     10032.963    1740.021      3434.379     10053.760    1780.414
     3534.740     10116.573    1748.237      3578.048     10138.610    1786.762
     3674.568     10196.518    1750.022      3717.302     10221.358    1788.931
     3816.130     10277.546    1754.376      3855.334     10303.104    1790.950
     3952.985     10355.430    1757.020      3994.160     10385.022    1797.083
     4091.323     10434.128    1765.374      4131.255     10465.341    1808.129
     4228.799     10511.998    1777.997      4260.244     10538.391    1815.907
     4382.843     10604.459    1817.091      4417.545     10635.061    1862.250
     4525.478     10687.488    1845.236      4555.644     10714.726    1886.854
     4650.918     10754.812    1849.246      4680.763     10782.064    1890.359
     4793.212     10837.425    1873.050      4820.981     10862.808    1909.901
     4948.902     10932.248    1909.566      4975.316     10956.290    1942.298
     5086.761     11010.783    1920.680      5118.297     11039.322    1955.337
     5211.494     11077.554    1914.940      5246.749     11109.261    1950.977
     5349.096     11156.013    1917.781      5381.806     11185.266    1952.214
     5494.747     11241.667    1924.870      5519.170     11263.408    1953.585
     5634.105     11321.697    1923.869      5660.985     11345.557    1959.114
     5776.813     11404.689    1928.780      5801.022     11426.165    1962.105
     5917.612     11485.973    1928.486      5939.543     11505.467    1961.964
      397.288      8119.978    1728.001       397.624      8119.390    1758.273
      537.501      8200.952    1732.212       538.839      8200.401    1762.496
      677.530      8281.995    1732.608       680.236      8281.490    1762.391
      817.195      8363.039    1732.282       821.608      8362.632    1760.783
      955.309      8444.106    1727.875       962.526      8443.796    1758.726
     1094.022      8525.065    1730.242      1103.665      8524.920    1760.062
     1233.467      8606.004    1734.999      1246.395      8606.031    1766.352
     1371.840      8686.932    1736.376      1390.308      8687.188    1772.706
     1509.852      8767.832    1737.120      1534.918      8768.401    1776.390
     1648.895      8848.735    1738.941      1677.258      8849.590    1774.833
     1789.250      8929.667    1740.989      1818.074      8930.740    1772.239
     1933.702      9010.776    1746.149      1964.198      9012.131    1775.972
     2073.940      9091.718    1746.594      2105.025      9093.345    1774.812
     2209.342      9172.351    1742.396      2245.622      9174.589    1773.899
     2347.859      9253.090    1740.845      2387.764      9256.028    1774.427
     2486.208      9333.737    1738.630      2522.189      9336.956    1766.510
     2623.198      9414.106    1734.343      2667.218      9419.006    1764.657
     2767.081      9495.179    1735.382      2815.083      9501.935    1765.478
     2902.228      9574.846    1731.927      2955.268      9584.294    1763.488
     3034.467      9653.269    1726.731      3085.892      9664.822    1757.535
     3175.422      9733.050    1725.480      3224.548      9746.827    1757.052
     3316.014      9812.506    1724.524      3364.484      9829.216    1758.759
     3459.130      9892.765    1726.590      3509.528      9913.786    1765.694
     3605.409      9974.792    1733.389      3652.540      9998.146    1771.879
     3748.929     10056.088    1739.709      3801.338     10086.317    1783.543
     3893.913     10138.880    1748.735      3942.458     10170.782    1790.301
     4033.210     10218.322    1755.360      4077.517     10250.812    1794.650
     4176.181     10300.690    1769.777      4217.181     10333.718    1810.354
     4315.289     10380.204    1786.938      4349.497     10410.005    1825.947
     4454.050     10459.508    1809.195      4506.299     10507.515    1872.422
     4600.784     10546.487    1841.871      4635.310     10578.823    1887.781
     4732.164     10619.050    1855.540      4762.373     10647.375    1896.404
     4884.826     10711.397    1894.930      4911.357     10735.947    1928.802
     5032.363     10798.700    1919.441      5063.326     10826.959    1954.659
     5157.451     10865.593    1916.174      5195.199     10899.674    1954.283
     5286.907     10936.686    1915.602      5327.073     10972.611    1953.769
     5427.621     11017.951    1920.812      5461.862     11048.313    1954.884
     5570.960     11101.536    1924.616      5597.525     11124.905    1954.497
     5711.915     11183.003    1924.997      5738.705     11206.422    1958.661
     5855.853     11267.051    1930.776      5879.917     11288.010    1962.096
     5996.835     11348.501    1930.460      6018.637     11367.476    1961.920
      476.679      7982.469    1719.590       477.017      7981.879    1747.855
      616.799      8063.385    1725.679       618.081      8062.863    1752.717
      756.682      8144.419    1726.294       759.444      8143.912    1754.484
      896.482      8225.424    1728.624       901.680      8224.953    1759.368
     1035.042      8306.464    1727.860      1043.198      8306.120    1759.342
     1174.298      8387.426    1732.331      1186.911      8387.239    1767.344
     1312.710      8468.381    1734.672      1328.758      8468.411    1769.973
     1451.628      8549.323    1737.289      1473.403      8549.601    1776.087
     1588.895      8630.223    1736.924      1615.343      8630.770    1774.228
     1726.297      8711.093    1736.918      1757.046      8711.926    1771.899
     1864.207      8791.945    1736.739      1897.261      8793.034    1768.904
     2008.981      8873.028    1742.061      2044.330      8874.405    1773.123
     2151.332      8954.044    1744.558      2186.837      8955.662    1773.447
     2294.459      9035.119    1746.584      2330.826      9037.060    1774.464
     2434.006      9116.015    1744.589      2473.077      9118.482    1773.005
     2574.550      9196.972    1741.756      2615.835      9200.118    1769.378
     2707.578      9277.229    1733.128      2752.548      9281.502    1760.167
     2847.899      9357.992    1730.501      2897.440      9364.022    1757.158
     2981.211      9437.590    1725.762      3041.692      9446.979    1756.121
     3111.359      9515.828    1719.585      3175.170      9528.521    1752.413
     3254.457      9596.027    1718.966      3314.618      9611.295    1752.631
     3392.381      9674.600    1715.926      3446.170      9691.740    1749.393
     3533.548      9753.737    1715.823      3580.912      9772.398    1748.730
     3674.854      9832.722    1718.885      3729.495      9858.896    1759.244
     3822.352      9915.170    1728.784      3881.969      9949.219    1774.326
     3969.944      9998.976    1740.490      4020.273     10032.452    1780.085
     4105.475     10075.096    1745.232      4157.903     10114.765    1787.872
     4252.269     10160.042    1763.069      4300.140     10200.528    1807.442
     4399.779     10247.034    1789.640      4431.575     10276.424    1825.201
     4526.666     10315.090    1798.911      4592.268     10379.273    1878.342
     4687.713     10416.807    1850.027      4719.155     10448.132    1890.720
     4829.056     10498.748    1878.018      4856.997     10526.223    1914.892
     4979.307     10588.674    1914.069      5006.563     10614.568    1947.383
     5110.607     10660.517    1920.014      5143.680     10690.992    1955.203
     5232.596     10724.467    1915.136      5273.478     10761.390    1953.625
     5365.065     10798.301    1917.748      5405.637     10834.432    1954.279
     5506.130     10879.884    1922.964      5542.727     10912.097    1958.232
     5647.448     10961.699    1924.213      5674.647     10985.375    1954.217
     5790.789     11045.253    1927.001      5815.927     11066.922    1958.094
     5935.708     11130.114    1933.693      5959.667     11150.617    1963.719
     6076.957     11211.793    1933.343      6098.571     11230.220    1963.460
      556.128      7844.859    1716.088       556.510      7844.192    1746.471
      696.062      7925.829    1718.873       697.550      7925.236    1748.587
      835.899      8006.828    1720.932       839.074      8006.260    1751.489
      975.437      8087.835    1723.031       981.867      8087.269    1758.461
     1114.520      8168.833    1726.185      1124.679      8168.416    1762.066
     1254.628      8249.787    1733.586      1267.394      8249.602    1765.818
     1392.005      8330.762    1734.210      1408.933      8330.784    1768.392
     1530.469      8411.706    1736.267      1553.398      8411.967    1773.169
     1668.092      8492.623    1736.526      1696.305      8493.139    1772.525
     1804.303      8573.487    1735.282      1837.223      8574.263    1769.632
     1940.197      8654.303    1733.542      1979.947      8655.427    1769.248
     2081.640      8735.249    1736.086      2121.086      8736.557    1768.094
     2224.928      8816.262    1739.439      2260.619      8817.638    1766.044
     2371.182      8897.425    1742.800      2407.096      8899.038    1767.376
     2517.445      8978.667    1743.064      2559.290      8980.876    1769.285
     2665.075      9060.119    1741.673      2709.124      9062.908    1767.086
     2795.455      9140.473    1730.117      2848.792      9144.681    1758.443
     2929.929      9220.873    1723.603      2997.253      9227.818    1755.185
     3058.877      9300.172    1717.033      3136.037      9310.478    1750.819
     3194.534      9379.614    1713.908      3265.479      9391.905    1746.750
     3336.148      9459.664    1713.557      3405.383      9475.290    1747.717
     3472.932      9538.158    1710.601      3542.186      9558.214    1748.313
     3611.124      9616.248    1708.707      3674.966      9639.632    1747.954
     3748.500      9693.129    1709.331      3815.287      9723.602    1753.523
     3894.171      9773.559    1717.269      3956.854      9808.662    1761.161
     4038.292      9853.838    1725.756      4091.869      9889.866    1765.023
     4175.014      9929.158    1731.725      4235.001      9976.399    1777.634
     4321.304     10012.441    1747.579      4375.616     10061.532    1796.040
     4460.497     10090.532    1761.781      4501.730     10131.962    1807.997
     4594.088     10163.418    1776.177      4680.009     10256.086    1885.248
     4720.133     10229.181    1783.298      4818.038     10336.443    1908.929
     4928.754     10383.946    1898.141      4960.849     10417.796    1940.011
     5066.910     10460.516    1918.944      5096.149     10489.464    1953.875
     5188.764     10522.359    1916.719      5225.779     10557.092    1954.653
     5310.995     10586.272    1914.333      5355.451     10626.562    1954.250
     5447.500     10663.729    1921.470      5492.377     10703.510    1960.584
     5587.858     10744.657    1926.824      5624.839     10776.929    1961.998
     5729.873     10827.039    1929.597      5760.894     10853.729    1963.575
     5874.503     10911.632    1934.509      5901.146     10934.260    1967.457
     6018.352     10995.502    1939.626      6043.706     11016.811    1970.768
     6159.799     11077.328    1939.339      6182.603     11096.362    1970.656
      635.615      7707.184    1715.659       636.002      7706.507    1746.307
      775.371      7788.248    1713.798       777.022      7787.611    1745.669
      915.175      7869.222    1716.909       918.857      7868.587    1750.743
     1054.619      7950.225    1719.277      1060.671      7949.711    1750.677
     1193.602      8031.219    1722.960      1203.880      8030.810    1756.678
     1331.553      8112.200    1726.038      1346.418      8111.986    1760.448
     1470.126      8193.146    1730.764      1489.266      8193.153    1765.704
     1610.258      8274.105    1735.869      1636.099      8274.349    1773.318
     1749.130      8355.063    1737.434      1779.799      8355.530    1773.264
     1883.288      8435.927    1733.883      1917.054      8436.576    1766.994
     2020.463      8516.813    1733.468      2064.125      8517.805    1770.681
     2159.553      8597.714    1734.193      2199.793      8598.780    1765.003
     2301.582      8678.676    1736.096      2345.348      8680.026    1766.589
     2445.043      8759.684    1736.076      2486.678      8761.188    1762.045
     2594.791      8840.984    1735.486      2644.999      8843.126    1763.366
     2739.192      8922.163    1729.298      2797.305      8925.124    1759.030
     2880.028      9003.244    1721.743      2947.689      9007.470    1754.140
     3011.665      9083.667    1713.387      3088.578      9089.913    1746.613
     3139.966      9163.201    1706.387      3225.260      9172.649    1743.939
     3281.397      9243.725    1707.291      3363.851      9256.009    1744.077
     3417.521      9323.119    1706.421      3494.140      9338.264    1741.367
     3552.717      9401.514    1704.513      3631.278      9421.830    1742.904
     3693.521      9480.647    1705.614      3763.732      9504.049    1743.810
     3831.353      9558.129    1707.160      3907.527      9590.309    1752.062
     3973.202      9636.406    1711.851      4038.020      9671.209    1753.442
     4111.433      9711.911    1715.291      4170.939      9752.083    1756.612
     4253.250      9789.568    1723.917      4313.454      9839.026    1768.736
     4398.532      9871.145    1737.001      4453.075      9924.186    1785.477
     4537.771      9948.052    1747.829      4576.099      9990.906    1792.168
     4671.616     10017.787    1756.637      4703.185     10058.708    1801.763
     4797.600     10082.292    1765.324      4900.533     10216.640    1906.047
     5008.298     10251.116    1888.297      5041.361     10289.668    1932.477
     5144.627     10323.159    1907.965      5178.723     10358.545    1948.731
     5269.943     10387.067    1912.090      5309.805     10425.245    1952.226
     5398.092     10455.964    1917.366      5441.313     10495.260    1955.133
     5534.357     10533.025    1925.963      5578.860     10572.194    1964.094
     5669.028     10608.934    1928.109      5710.901     10645.028    1967.740
     5816.402     10695.810    1938.247      5850.396     10724.617    1975.106
     5959.669     10779.112    1943.263      5988.125     10802.857    1978.041
     6102.569     10862.085    1946.386      6129.890     10884.584    1979.489