NOECHO

-- =============================================================================
-- 
-- Exported from Reek_base_sim
-- 
-- Exported by user asny from RMS11 at 2020-02-19 17:19:46
-- 
-- =============================================================================

MAPUNITS
'METRES  ' /

MAPAXES
456514.869 5939175.199
456514.869 5927115.548
467218.306 5927115.548 /

GRIDUNIT
'METRES  ' '        ' /

SPECGRID
  40  64  14   1  F  /

GDORIENT
INC INC INC DOWN RIGHT /

COORD
        0.000      8808.154    1730.829         0.185      8807.770    1761.895
      139.987      8889.192    1731.656       140.823      8888.841    1759.834
      279.871      8970.217    1733.671       281.596      8969.871    1760.951
      419.683      9051.218    1737.017       422.941      9050.869    1767.582
      559.468      9132.201    1741.175       564.565      9131.921    1773.850
      699.026      9213.180    1743.769       706.232      9213.019    1776.449
      838.614      9294.145    1746.441       848.268      9294.141    1778.715
      978.181      9375.097    1748.532       989.852      9375.294    1779.442
     1117.062      9456.014    1747.117      1130.707      9456.449    1775.501
     1255.100      9536.854    1743.310      1273.051      9537.688    1775.104
     1392.833      9617.611    1739.482      1416.061      9619.038    1776.875
     1530.396      9698.272    1737.110      1557.111      9700.339    1776.427
     1668.454      9778.876    1736.986      1698.638      9781.743    1776.973
     1806.186      9859.338    1736.778      1838.763      9863.083    1775.410
     1943.680      9939.608    1736.607      1977.077      9944.238    1772.509
     2081.457     10019.704    1737.361      2115.566     10025.404    1771.471
     2220.286     10099.745    1739.652      2259.358     10107.613    1777.329
     2360.396     10179.855    1744.125      2403.370     10190.246    1785.082
     2500.641     10259.845    1750.007      2544.991     10272.628    1792.091
     2642.295     10340.155    1757.903      2685.515     10354.868    1798.879
     2783.394     10420.232    1764.390      2828.470     10438.161    1807.094
     2922.713     10499.450    1766.760      2970.125     10521.183    1810.198
     3062.041     10578.454    1766.463      3111.705     10604.281    1811.558
     3202.438     10657.916    1765.289      3249.777     10685.405    1808.957
     3341.719     10736.683    1762.231      3384.527     10764.040    1802.555
     3480.835     10815.248    1759.781      3517.381     10840.654    1795.485
     3619.770     10893.613    1759.467      3653.282     10918.701    1794.360
     3759.184     10972.333    1762.913      3794.121     11000.222    1802.505
     3899.841     11052.189    1771.228      3934.552     11081.429    1814.067
     4041.176     11132.896    1784.576      4077.849     11165.130    1832.692
     4184.710     11215.909    1809.722      4227.781     11254.963    1862.990
     4330.996     11301.842    1836.958      4378.463     11345.754    1891.894
     4467.218     11378.690    1848.538      4517.877     11426.061    1907.210
     4610.391     11462.152    1868.318      4660.344     11509.066    1927.488
     4757.643     11549.532    1894.339      4803.019     11592.208    1947.636
     4900.691     11632.992    1911.359      4942.882     11672.724    1959.709
     5039.485     11712.449    1916.862      5080.006     11750.698    1963.282
     5179.405     11792.965    1919.184      5213.828     11825.566    1962.236
     5320.532     11874.624    1921.965      5350.143     11902.787    1963.743
     5461.882     11956.491    1926.447      5487.649     11981.133    1966.730
     5602.673     12037.818    1926.204      5625.343     12059.650    1966.597
       79.449      8670.515    1730.853        79.658      8670.147    1761.888
      219.469      8751.550    1731.683       220.305      8751.213    1759.865
      359.404      8832.572    1733.704       361.121      8832.239    1760.986
      499.304      8913.570    1737.072       502.546      8913.239    1767.610
      639.221      8994.553    1741.217       644.335      8994.292    1773.864
      778.945      9075.538    1743.812       786.161      9075.397    1776.461
      918.647      9156.513    1746.491       928.332      9156.530    1778.743
     1058.257      9237.477    1748.556      1070.007      9237.691    1779.432
     1197.227      9318.406    1747.139      1210.674      9318.845    1775.505
     1335.602      9399.276    1743.341      1353.117      9400.088    1775.109
     1473.535      9480.069    1739.538      1496.194      9481.437    1776.876
     1611.228      9560.771    1737.192      1637.253      9562.735    1776.419
     1749.676      9641.453    1737.044      1778.905      9644.146    1776.983
     1888.115      9722.050    1736.856      1919.251      9725.509    1775.383
     2026.522      9802.529    1736.731      2058.164      9806.761    1772.486
     2165.214      9882.904    1737.510      2197.592      9888.124    1771.510
     2304.993      9963.309    1739.914      2342.194      9970.546    1777.477
     2445.624     10043.777    1744.426      2486.635     10053.379    1785.220
     2586.153     10124.136    1750.456      2628.678     10136.043    1792.259
     2727.724     10204.739    1758.324      2769.831     10218.713    1799.120
     2869.110     10285.274    1764.674      2913.818     10302.675    1807.339
     3009.121     10365.190    1766.897      3055.276     10385.976    1810.334
     3149.075     10444.943    1766.560      3196.107     10469.056    1811.651
     3289.746     10525.005    1765.279      3333.481     10550.120    1808.897
     3429.620     10604.595    1762.130      3468.868     10629.457    1802.374
     3569.516     10684.170    1759.758      3603.020     10707.297    1795.452
     3708.021     10762.706    1759.613      3739.127     10785.859    1794.764
     3845.977     10840.706    1763.303      3878.493     10866.541    1803.104
     3984.567     10919.150    1771.664      4016.613     10946.044    1814.466
     4124.340     10998.680    1785.144      4157.789     11027.992    1832.930
     4268.114     11082.011    1810.628      4305.196     11115.542    1862.495
     4412.243     11166.020    1837.221      4452.936     11203.550    1890.924
     4547.445     11241.953    1848.616      4592.093     11283.551    1906.560
     4689.759     11324.609    1868.298      4734.489     11366.426    1926.648
     4836.064     11411.077    1894.149      4877.700     11450.011    1946.801
     4978.630     11494.071    1911.222      5019.135     11531.958    1959.462
     5117.738     11573.835    1916.832      5157.322     11610.910    1963.295
     5258.450     11655.097    1919.183      5292.243     11686.831    1962.380
     5400.295     11737.426    1921.989      5429.372     11764.830    1963.885
     5541.948     11819.579    1926.463      5567.525     11843.799    1966.857
     5682.468     11900.652    1926.217      5705.293     11922.405    1966.718
      158.892      8532.915    1729.636       159.158      8532.451    1763.260
      298.857      8613.951    1729.922       299.785      8613.576    1757.837
      438.703      8694.970    1731.430       440.589      8694.614    1758.252
      578.465      8775.962    1734.009       582.082      8775.616    1764.548
      718.495      8856.924    1739.078       723.916      8856.679    1769.960
      858.088      8937.904    1741.474       866.041      8937.785    1773.656
      997.647      9018.872    1744.080      1007.084      9018.921    1772.353
     1137.778      9099.840    1747.670      1151.335      9100.116    1779.610
     1276.421      9180.763    1746.001      1290.023      9181.215    1772.224
     1414.812      9261.639    1742.618      1432.601      9262.447    1772.418
     1551.628      9342.377    1737.489      1576.317      9343.808    1775.167
     1688.916      9423.057    1734.856      1718.001      9425.129    1775.771
     1828.020      9503.799    1735.430      1857.758      9506.356    1773.896
     1966.023      9584.373    1734.364      1996.918      9587.553    1771.212
     2105.007      9664.944    1734.492      2136.070      9668.777    1768.703
     2243.731      9745.357    1734.796      2275.987      9750.154    1767.765
     2383.094      9825.708    1736.385      2421.864      9832.688    1774.048
     2523.989      9906.222    1740.867      2566.211      9915.423    1780.646
     2663.497      9986.303    1745.324      2709.166      9998.289    1787.496
     2806.062     10067.125    1752.971      2848.234     10080.346    1791.159
     2949.685     10148.426    1759.996      2995.744     10165.515    1801.087
     3088.423     10227.864    1760.277      3132.864     10247.121    1800.499
     3228.511     10307.651    1759.835      3277.038     10331.812    1805.836
     3370.627     10388.476    1760.278      3413.500     10412.576    1803.057
     3508.688     10466.981    1755.902      3548.636     10491.914    1796.700
     3649.213     10546.928    1754.677      3680.982     10568.633    1788.125
     3785.693     10623.972    1752.946      3814.399     10645.186    1784.953
     3923.093     10701.446    1757.004      3956.805     10728.095    1797.904
     4064.028     10781.764    1770.036      4093.450     10806.365    1809.386
     4198.877     10857.015    1778.619      4232.679     10886.555    1827.189
     4345.491     10942.792    1808.436      4381.102     10974.902    1859.870
     4495.319     11032.016    1844.427      4532.773     11066.426    1896.007
     4623.970     11101.944    1848.217      4666.437     11141.294    1904.936
     4766.041     11184.377    1868.216      4810.484     11225.606    1926.521
     4917.816     11275.875    1900.616      4959.206     11314.182    1951.698
     5060.273     11358.737    1916.561      5098.414     11393.959    1959.930
     5194.304     11433.838    1916.187      5234.037     11470.493    1960.609
     5333.892     11514.066    1916.626      5368.523     11546.030    1958.655
     5475.694     11596.333    1918.365      5505.353     11623.758    1958.661
     5618.188     11679.237    1923.195      5644.710     11703.843    1962.116
     5758.950     11760.528    1922.949      5782.754     11782.723    1961.939
      238.355      8395.280    1730.301       238.697      8394.684    1767.048
      378.270      8476.347    1728.628       379.354      8475.898    1757.472
      518.006      8557.370    1729.290       520.204      8556.957    1756.863
      657.752      8638.345    1732.287       661.634      8637.985    1761.092
      797.456      8719.311    1735.719       803.269      8719.068    1764.806
      936.390      8800.282    1736.713       944.142      8800.189    1764.296
     1075.256      8881.223    1738.539      1085.632      8881.298    1766.049
     1215.485      8962.170    1743.172      1227.790      8962.432    1768.879
     1355.395      9043.117    1744.882      1370.195      9043.605    1770.372
     1494.680      9124.034    1743.758      1514.219      9124.890    1773.049
     1633.719      9204.917    1742.281      1657.147      9206.201    1774.492
     1771.134      9285.665    1739.578      1801.261      9287.665    1778.388
     1906.880      9366.204    1735.641      1934.149      9368.366    1768.442
     2045.817      9446.900    1735.442      2076.291      9449.770    1769.859
     2185.228      9527.571    1735.578      2215.063      9530.928    1766.959
     2323.855      9608.046    1735.185      2355.413      9612.324    1765.792
     2463.334      9688.496    1736.284      2500.123      9694.553    1769.551
     2604.468      9769.123    1740.371      2651.985      9778.649    1780.995
     2745.756      9849.743    1745.179      2790.951      9860.740    1782.527
     2887.259      9930.387    1749.921      2930.222      9942.993    1784.627
     3027.320     10010.494    1752.056      3069.764     10025.395    1786.435
     3164.550     10089.216    1750.109      3209.788     10107.993    1788.532
     3308.989     10170.842    1753.412      3359.844     10195.406    1799.872
     3452.166     10252.234    1755.771      3496.582     10276.745    1798.729
     3590.728     10331.132    1753.563      3634.599     10358.269    1796.567
     3731.659     10411.452    1754.576      3769.283     10437.104    1792.174
     3867.141     10487.890    1753.444      3904.156     10515.299    1792.468
     4005.735     10566.392    1760.122      4045.008     10597.579    1805.754
     4144.525     10645.054    1772.071      4175.044     10670.755    1811.693
     4287.560     10727.561    1794.464      4321.954     10757.834    1842.728
     4434.600     10814.087    1826.537      4467.347     10843.746    1873.323
     4571.523     10891.663    1845.254      4604.387     10921.890    1890.670
     4704.824     10965.922    1856.380      4740.968     10999.339    1904.435
     4854.678     11055.563    1886.630      4892.057     11090.058    1934.225
     5004.162     11144.849    1914.012      5042.496     11180.054    1958.259
     5134.094     11216.208    1914.125      5172.092     11250.933    1954.287
     5270.303     11293.384    1915.755      5306.452     11326.291    1953.647
     5413.326     11376.769    1919.651      5442.929     11403.656    1953.509
     5554.590     11458.544    1920.382      5581.190     11482.691    1954.403
     5696.145     11540.575    1923.287      5722.812     11564.811    1959.742
     5837.147     11622.086    1923.116      5861.017     11643.853    1959.486
      317.842      8257.605    1732.004       318.176      8257.023    1763.096
      457.958      8338.623    1733.428       459.120      8338.137    1760.581
      597.868      8419.664    1733.242       600.332      8419.202    1760.287
      736.974      8500.733    1730.195       741.093      8500.361    1756.756
      875.805      8581.720    1730.366       882.888      8581.441    1761.066
     1015.288      8662.651    1734.780      1023.494      8662.569    1760.219
     1154.506      8743.585    1738.017      1166.246      8743.684    1765.419
     1291.649      8824.467    1736.816      1305.752      8824.771    1762.936
     1431.886      8905.396    1740.329      1453.488      8906.088    1773.388
     1571.857      8986.319    1741.343      1595.740      8987.314    1773.092
     1713.444      9067.322    1743.610      1738.273      9068.592    1773.989
     1852.788      9148.211    1743.387      1880.438      9149.903    1775.415
     1989.926      9228.920    1741.151      2018.089      9230.954    1771.985
     2125.240      9309.389    1736.953      2157.137      9312.106    1770.189
     2262.858      9389.915    1734.998      2296.903      9393.362    1768.134
     2403.373      9470.640    1735.802      2440.678      9475.187    1769.057
     2542.490      9551.095    1735.662      2582.659      9557.054    1768.342
     2683.469      9631.719    1738.351      2732.227      9640.573    1775.090
     2824.291      9712.242    1741.247      2881.249      9724.897    1782.102
     2961.789      9791.768    1741.198      3012.757      9805.573    1776.895
     3100.287      9871.104    1740.362      3148.620      9886.980    1775.108
     3240.852      9950.771    1739.778      3283.604      9967.634    1773.165
     3382.135     10030.568    1739.907      3428.872     10052.378    1780.132
     3529.564     10113.677    1746.760      3578.339     10140.104    1791.150
     3671.276     10194.279    1749.414      3719.961     10224.267    1794.141
     3810.359     10273.316    1751.008      3855.239     10304.104    1792.911
     3948.055     10351.264    1754.098      3990.601     10383.170    1795.664
     4088.144     10430.981    1763.851      4129.479     10464.405    1808.690
     4224.787     10507.875    1775.301      4255.976     10534.760    1813.312
     4376.245     10598.112    1810.812      4420.673     10638.187    1868.852
     4522.375     10684.265    1843.145      4559.487     10718.463    1894.215
     4648.584     10752.020    1848.620      4686.456     10787.196    1900.003
     4789.582     10833.474    1871.739      4825.694     10866.940    1918.329
     4944.968     10928.210    1907.857      4978.969     10959.508    1948.390
     5085.271     11008.976    1921.357      5121.775     11042.320    1959.987
     5209.251     11074.979    1914.416      5245.708     11108.023    1949.851
     5344.860     11151.687    1914.523      5382.072     11185.184    1951.117
     5490.823     11237.720    1920.557      5524.921     11268.244    1957.747
     5630.645     11318.227    1918.984      5661.795     11346.011    1957.112
     5774.071     11401.930    1923.595      5803.563     11428.198    1961.701
     5915.291     11483.644    1923.337      5941.794     11507.276    1961.502
      397.281      8120.014    1728.308       397.604      8119.449    1754.958
      537.493      8200.960    1733.142       538.786      8200.420    1759.885
      677.567      8281.986    1733.978       680.102      8281.518    1758.580
      816.906      8363.056    1732.049       821.063      8362.691    1755.594
      955.386      8444.077    1730.539       962.639      8443.807    1758.015
     1094.484      8525.017    1733.736      1104.321      8524.934    1760.532
     1232.823      8605.941    1735.382      1245.665      8606.060    1762.093
     1370.172      8686.819    1735.492      1389.152      8687.225    1767.168
     1508.290      8767.681    1736.430      1536.070      8768.538    1774.772
     1646.641      8848.525    1736.404      1676.278      8849.686    1771.682
     1787.772      8929.472    1738.620      1818.787      8930.938    1772.410
     1930.351      9010.509    1742.150      1965.524      9012.470    1778.334
     2069.596      9091.366    1742.327      2102.223      9093.491    1774.142
     2206.292      9171.999    1739.758      2245.266      9174.967    1775.929
     2344.359      9252.644    1737.775      2385.374      9256.333    1773.403
     2483.875      9333.338    1736.566      2525.271      9337.796    1769.413
     2621.112      9413.640    1733.676      2672.829      9420.421    1770.643
     2761.231      9494.146    1734.240      2823.180      9504.129    1774.566
     2896.801      9573.605    1732.510      2960.594      9586.271    1771.449
     3031.609      9652.247    1729.649      3091.930      9667.063    1765.780
     3175.691      9732.787    1730.658      3230.014      9749.252    1764.959
     3315.665      9811.938    1728.370      3363.238      9829.577    1762.079
     3456.186      9890.943    1727.460      3509.868      9914.967    1770.165
     3601.075      9972.031    1732.525      3653.779      9999.979    1776.872
     3747.038     10054.438    1740.440      3803.713     10089.272    1788.694
     3890.937     10136.381    1748.336      3944.116     10173.369    1794.369
     4030.056     10215.333    1754.641      4077.769     10252.046    1797.440
     4171.966     10296.620    1767.797      4217.738     10334.985    1813.816
     4311.109     10375.833    1784.498      4353.692     10414.144    1833.556
     4448.945     10454.031    1805.647      4510.835     10512.461    1880.950
     4598.801     10544.089    1842.430      4641.667     10585.201    1899.321
     4730.376     10616.666    1856.875      4770.179     10654.690    1909.547
     4883.208     10709.365    1896.658      4916.960     10741.041    1938.487
     5029.926     10795.980    1920.582      5065.082     10828.406    1959.366
     5155.560     10863.273    1917.355      5193.759     10898.048    1954.337
     5284.151     10933.569    1914.807      5328.011     10973.065    1954.219
     5426.086     11016.003    1919.756      5472.080     11057.014    1962.806
     5568.441     11098.805    1921.460      5607.760     11133.555    1963.255
     5708.624     11179.676    1919.778      5743.652     11210.415    1961.853
     5852.431     11263.700    1924.593      5885.037     11292.181    1965.099
     5993.846     11345.598    1924.329      6023.280     11371.270    1964.970
      476.667      7982.515    1720.435       476.976      7981.975    1743.673
      616.734      8063.418    1726.783       617.957      8062.915    1749.727
      756.825      8144.390    1730.137       759.611      8143.887    1754.714
      896.338      8225.424    1730.369       900.571      8225.064    1752.034
     1034.781      8306.443    1729.459      1042.964      8306.155    1757.303
     1173.771      8387.384    1732.610      1186.076      8387.295    1762.792
     1311.949      8468.307    1734.296      1327.310      8468.455    1763.499
     1448.806      8549.177    1734.078      1469.812      8549.617    1766.520
     1586.049      8630.018    1734.367      1614.091      8630.842    1770.104
     1724.307      8710.863    1734.850      1756.982      8712.057    1770.314
     1860.624      8791.600    1732.484      1897.312      8793.188    1768.514
     2004.412      8872.651    1737.365      2046.024      8874.747    1775.486
     2148.446      8953.760    1741.915      2188.585      8956.095    1776.399
     2290.821      9034.812    1743.735      2336.604      9037.896    1780.645
     2431.562      9115.775    1742.615      2476.652      9119.322    1776.478
     2571.007      9196.625    1739.360      2619.166      9201.122    1772.555
     2704.637      9276.776    1732.366      2758.043      9282.838    1765.715
     2841.078      9356.948    1729.270      2903.058      9365.630    1763.748
     2973.137      9436.007    1725.152      3037.384      9447.135    1757.948
     3103.365      9513.705    1719.385      3178.915      9530.183    1758.115
     3250.441      9594.542    1720.625      3318.169      9613.182    1758.222
     3390.659      9673.456    1717.731      3450.530      9694.040    1755.929
     3531.347      9752.092    1716.718      3585.521      9775.075    1755.967
     3672.008      9830.360    1718.958      3734.301      9862.428    1766.860
     3821.773      9913.986    1730.665      3883.113      9951.509    1778.779
     3967.064      9996.253    1740.584      4021.017     10034.471    1783.413
     4103.283     10072.340    1745.562      4161.614     10118.989    1793.632
     4246.499     10154.132    1759.971      4305.796     10206.715    1815.773
     4395.672     10242.547    1787.494      4439.545     10284.749    1836.800
     4522.764     10310.192    1797.156      4598.525     10386.797    1889.326
     4684.683     10413.413    1850.197      4725.637     10455.365    1902.872
     4825.183     10494.495    1877.446      4866.018     10535.504    1930.094
     4977.074     10586.156    1915.962      5012.870     10620.667    1958.564
     5107.445     10656.996    1921.648      5144.211     10691.204    1959.662
     5229.602     10721.031    1916.201      5271.839     10759.445    1954.062
     5360.940     10793.902    1916.180      5409.835     10837.678    1957.406
     5505.298     10878.506    1922.508      5554.519     10922.016    1967.126
     5645.664     10959.572    1921.711      5686.434     10995.180    1964.715
     5787.282     11041.735    1920.966      5823.543     11073.071    1964.656
     5932.369     11126.846    1927.396      5966.476     11156.083    1968.841
     6073.825     11208.789    1927.070      6104.745     11235.175    1968.696
      556.095      7844.942    1716.494       556.410      7844.390    1739.036
      695.955      7925.878    1720.842       697.151      7925.398    1741.963
      835.695      8006.858    1723.451       838.748      8006.325    1748.851
      974.911      8087.859    1724.509       981.091      8087.359    1754.055
     1114.221      8168.806    1728.178      1124.462      8168.469    1760.331
     1253.944      8249.745    1733.108      1268.072      8249.659    1765.046
     1391.289      8330.675    1733.154      1410.610      8330.866    1767.510
     1527.533      8411.540    1732.292      1551.377      8412.023    1767.099
     1664.201      8492.374    1732.169      1695.146      8493.229    1769.161
     1801.845      8573.211    1732.344      1838.686      8574.448    1769.547
     1938.534      8653.984    1730.740      1981.826      8655.676    1769.980
     2079.058      8734.882    1732.980      2122.557      8736.832    1769.133
     2220.510      8815.819    1735.382      2269.986      8818.351    1773.193
     2369.098      8897.175    1740.734      2413.688      8899.784    1772.054
     2517.105      8978.623    1742.469      2563.077      8981.723    1772.186
     2662.408      9060.035    1740.442      2709.336      9063.744    1768.615
     2790.728      9140.021    1728.722      2845.833      9145.278    1759.194
     2921.905      9219.863    1721.879      2990.189      9227.960    1754.721
     3048.440      9298.416    1715.280      3132.901      9310.960    1752.050
     3181.706      9376.850    1710.969      3269.567      9393.588    1751.034
     3328.375      9457.407    1712.297      3414.554      9478.539    1754.892
     3469.864      9536.657    1710.736      3541.433      9559.049    1751.570
     3606.294      9613.556    1707.593      3674.056      9640.308    1751.645
     3746.071      9690.797    1709.686      3813.479      9723.901    1756.429
     3891.432      9770.691    1717.925      3957.076      9810.163    1764.900
     4035.455      9850.495    1726.576      4090.264      9889.911    1766.745
     4171.308      9924.367    1731.143      4234.028      9976.918    1779.740
     4318.086     10007.880    1746.802      4378.991     10066.056    1802.183
     4459.312     10087.775    1762.756      4508.751     10139.886    1818.721
     4590.998     10158.332    1775.407      4685.496     10264.406    1896.798
     4714.164     10220.667    1781.054      4822.826     10343.433    1919.636
     4925.313     10380.466    1898.974      4966.386     10424.808    1951.721
     5063.651     10457.023    1920.986      5100.532     10494.123    1964.302
     5184.719     10517.871    1918.506      5225.491     10556.491    1959.180
     5308.733     10583.418    1916.730      5353.147     10623.900    1954.462
     5443.143     10659.093    1920.065      5490.145     10700.923    1958.026
     5585.254     10741.687    1925.035      5629.423     10780.343    1964.388
     5727.458     10824.345    1926.575      5765.804     10857.403    1966.960
     5870.956     10908.088    1928.159      5906.398     10938.225    1971.205
     6014.997     10992.237    1933.210      6049.608     11021.336    1974.728
     6156.525     11074.227    1932.932      6187.852     11100.371    1974.632
      635.568      7707.289    1716.450       635.908      7706.695    1740.435
      775.234      7788.306    1716.666       776.727      7787.729    1742.406
      914.727      7869.289    1718.800       918.177      7868.713    1746.785
     1053.864      7950.258    1720.992      1060.339      7949.762    1750.669
     1193.104      8031.187    1725.122      1204.660      8030.834    1759.214
     1330.864      8112.124    1726.184      1346.514      8112.047    1759.252
     1469.636      8193.035    1729.860      1491.337      8193.250    1766.219
     1608.073      8273.942    1732.432      1633.870      8274.439    1768.154
     1747.857      8354.882    1735.410      1781.966      8355.751    1773.948
     1880.116      8435.600    1729.659      1918.663      8436.764    1766.573
     2018.233      8516.453    1729.511      2067.798      8518.160    1772.082
     2155.431      8597.245    1729.485      2203.911      8599.130    1767.019
     2296.659      8678.172    1731.623      2347.236      8680.388    1766.885
     2444.684      8759.431    1734.784      2495.269      8761.938    1766.534
     2597.120      8841.030    1736.231      2644.111      8843.683    1763.101
     2740.890      8922.275    1730.547      2796.186      8925.870    1760.174
     2877.292      9003.071    1721.580      2943.696      9008.146    1754.640
     3002.098      9082.711    1710.722      3080.501      9090.074    1744.888
     3128.941      9161.612    1703.452      3219.995      9172.967    1742.846
     3268.279      9241.355    1703.472      3366.132      9257.419    1746.077
     3411.907      9321.589    1705.623      3500.041      9340.500    1745.828
     3549.195      9400.006    1704.340      3631.165      9422.869    1746.369
     3690.660      9478.928    1706.007      3755.274      9502.111    1743.288
     3830.420      9556.695    1708.902      3906.130      9591.122    1755.593
     3971.708      9634.294    1714.106      4044.018      9676.005    1760.947
     4111.478      9710.253    1718.849      4171.509      9753.659    1760.018
     4253.337      9787.659    1726.470      4312.568      9839.696    1771.021
     4396.019      9866.617    1736.580      4457.930      9930.819    1793.132
     4534.754      9942.451    1746.057      4582.306      9998.890    1802.643
     4668.663     10011.229    1754.428      4708.216     10065.420    1813.278
     4792.244     10072.754    1762.344      4904.625     10224.796    1918.834
     5005.444     10248.265    1890.961      5048.690     10300.032    1948.818
     5141.135     10319.345    1910.661      5183.977     10364.604    1961.685
     5265.602     10382.206    1913.927      5307.540     10422.767    1955.214
     5392.988     10450.485    1917.319      5438.133     10491.739    1954.592
     5527.474     10526.153    1922.494      5574.950     10568.055    1959.985
     5662.317     10602.396    1923.134      5713.015     10646.175    1968.004
     5810.263     10689.951    1931.787      5850.399     10723.990    1973.701
     5954.339     10774.093    1935.304      5989.552     10803.480    1977.273
     6098.447     10858.205    1939.333      6133.481     10887.039    1980.505