NOECHO

-- =============================================================================
-- 
-- Exported from Reek_base_sim
-- 
-- Exported by user asny from RMS11 at 2020-02-19 16:30:48
-- 
-- =============================================================================

MAPUNITS
'METRES  ' /

MAPAXES
456514.890 5939175.580
456514.890 5927115.548
467217.456 5927115.548 /

GRIDUNIT
'METRES  ' '        ' /

SPECGRID
  40  64  14   1  F  /

GDORIENT
INC INC INC DOWN RIGHT /

COORD
        0.000      8808.115    1740.565         0.167      8807.759    1784.333
      140.015      8889.152    1740.089       140.932      8888.800    1785.332
      279.880      8970.187    1739.343       281.832      8969.839    1786.733
      419.612      9051.195    1740.238       422.993      9050.888    1788.994
      559.226      9132.182    1742.671       564.292      9131.967    1787.931
      699.012      9213.150    1747.204       705.761      9213.065    1786.125
      838.808      9294.116    1750.722       847.376      9294.187    1784.054
      978.273      9375.069    1751.709       988.886      9375.331    1781.195
     1117.405      9455.993    1750.447      1129.798      9456.479    1777.498
     1255.274      9536.820    1746.026      1270.098      9537.616    1774.185
     1392.918      9617.563    1742.243      1411.820      9618.857    1774.812
     1530.565      9698.223    1739.635      1552.642      9700.084    1774.294
     1668.437      9778.809    1738.511      1694.195      9781.430    1775.505
     1806.207      9859.276    1738.480      1835.512      9862.830    1777.371
     1944.204      9939.636    1739.622      1976.730      9944.310    1780.120
     2082.799     10019.932    1741.769      2118.924     10026.072    1784.629
     2220.294     10099.833    1742.506      2260.382     10107.881    1787.802
     2358.160     10179.528    1743.776      2400.799     10189.615    1789.755
     2499.171     10259.775    1749.450      2543.732     10272.146    1795.352
     2642.396     10340.645    1758.609      2687.003     10355.104    1802.075
     2782.116     10420.314    1763.821      2830.409     10438.487    1807.841
     2920.914     10499.354    1766.016      2971.693     10521.345    1808.276
     3060.727     10578.575    1766.750      3111.114     10603.392    1806.541
     3201.396     10658.122    1766.535      3246.615     10683.113    1802.374
     3341.578     10737.386    1765.279      3381.564     10761.853    1798.879
     3480.568     10815.854    1764.000      3518.279     10841.095    1798.423
     3620.944     10895.242    1765.513      3659.027     10922.821    1803.789
     3761.222     10974.679    1769.012      3797.055     11002.443    1809.093
     3901.568     11054.349    1775.066      3933.653     11080.639    1814.949
     4041.591     11133.973    1786.220      4072.959     11160.823    1827.296
     4186.012     11217.705    1809.650      4220.557     11248.243    1853.184
     4330.204     11301.622    1831.956      4368.095     11335.845    1877.918
     4468.086     11380.035    1843.606      4506.629     11415.288    1891.384
     4612.072     11464.152    1864.727      4650.032     11499.094    1913.345
     4758.041     11550.195    1892.587      4797.568     11586.709    1943.181
     4900.794     11633.311    1914.267      4942.812     11672.257    1968.234
     5039.792     11712.955    1923.759      5081.498     11751.781    1976.909
     5179.256     11793.023    1927.369      5214.110     11825.644    1973.851
     5321.016     11875.240    1930.814      5349.442     11902.012    1971.290
     5463.073     11957.750    1935.150      5487.783     11981.193    1972.597
     5604.000     12039.195    1934.907      5625.774     12060.031    1972.541
       79.451      8670.477    1740.579        79.656      8670.114    1784.352
      219.490      8751.515    1740.103       220.455      8751.163    1785.373
      359.379      8832.548    1739.384       361.408      8832.203    1786.769
      499.149      8913.557    1740.292       502.647      8913.256    1789.002
      638.869      8994.542    1742.736       644.018      8994.343    1787.953
      778.850      9075.514    1747.249       785.570      9075.447    1786.146
      918.871      9156.491    1750.753       927.320      9156.576    1784.072
     1058.506      9237.458    1751.739      1069.025      9237.729    1781.196
     1197.834      9318.403    1750.441      1210.113      9318.889    1777.480
     1335.966      9399.262    1746.052      1350.424      9400.031    1774.192
     1473.729      9480.039    1742.279      1491.945      9481.265    1774.819
     1611.619      9560.750    1739.683      1632.842      9562.500    1774.300
     1749.860      9641.416    1738.567      1774.571      9643.863    1775.526
     1888.037      9721.987    1738.570      1915.986      9725.276    1777.387
     2026.428      9802.481    1739.733      2057.397      9806.792    1780.143
     2165.402      9882.939    1741.856      2199.806      9888.600    1784.667
     2303.583      9963.110    1742.684      2341.975      9970.574    1787.821
     2442.524     10043.231    1744.059      2483.587     10052.649    1789.832
     2584.917     10124.073    1749.970      2627.841     10135.642    1795.551
     2728.803     10205.442    1759.043      2772.604     10219.252    1802.301
     2869.332     10285.793    1764.138      2917.246     10303.380    1807.970
     3009.194     10365.745    1766.235      3058.565     10386.664    1808.287
     3149.820     10445.887    1766.938      3197.214     10468.800    1806.451
     3290.568     10526.042    1766.577      3332.129     10548.661    1802.338
     3430.581     10605.765    1765.250      3466.724     10627.608    1798.863
     3569.171     10684.507    1764.084      3603.261     10707.111    1798.684
     3708.754     10763.805    1765.742      3743.144     10788.539    1804.044
     3847.606     10842.551    1769.298      3879.980     10867.516    1809.295
     3986.317     10921.189    1775.424      4015.229     10944.799    1815.176
     4125.011     10999.875    1786.792      4153.048     11023.814    1827.527
     4267.850     11082.320    1810.139      4298.336     11109.209    1852.852
     4410.479     11164.876    1832.060      4444.237     11195.286    1877.302
     4548.261     11243.225    1843.682      4583.409     11275.261    1891.299
     4692.448     11327.528    1864.954      4727.145     11359.317    1913.009
     4837.882     11413.060    1892.679      4874.600     11446.777    1942.534
     4979.677     11495.284    1914.176      5020.780     11533.110    1967.857
     5118.690     11574.953    1923.734      5159.736     11612.853    1976.842
     5258.909     11655.729    1927.384      5292.743     11687.109    1974.053
     5401.679     11738.883    1930.869      5429.051     11764.411    1971.512
     5544.049     11821.681    1935.176      5567.990     11844.160    1972.809
     5684.466     11902.650    1934.931      5706.012     11923.049    1972.742
      158.900      8532.864    1739.653       159.146      8532.434    1783.017
      298.920      8613.898    1739.279       299.970      8613.517    1781.865
      438.684      8694.942    1736.831       440.995      8694.564    1783.446
      578.354      8775.942    1737.679       582.454      8775.616    1787.035
      717.945      8856.919    1739.636       723.787      8856.722    1784.757
      858.135      8937.879    1745.190       865.436      8937.836    1783.013
      998.381      9018.856    1749.158      1007.249      9018.969    1780.866
     1137.955      9099.825    1750.125      1150.021      9100.151    1780.925
     1277.620      9180.785    1750.030      1290.717      9181.304    1776.460
     1414.642      9261.597    1744.448      1429.279      9262.355    1770.522
     1552.735      9342.399    1741.656      1572.451      9343.670    1774.244
     1690.419      9423.110    1738.651      1712.069      9424.801    1771.662
     1828.696      9503.796    1737.421      1854.816      9506.228    1774.355
     1965.887      9584.287    1735.876      1994.748      9587.462    1774.188
     2105.229      9664.915    1738.192      2136.419      9668.965    1776.934
     2244.574      9745.462    1740.417      2281.552      9751.132    1783.685
     2380.608      9825.304    1738.199      2422.666      9832.930    1784.556
     2520.179      9905.555    1739.674      2565.672      9915.300    1787.123
     2663.135      9986.491    1745.219      2709.732      9998.256    1791.240
     2808.577     10068.248    1754.119      2853.454     10081.566    1795.253
     2949.066     10148.631    1757.899      2999.190     10166.053    1800.666
     3089.222     10228.742    1759.633      3138.642     10248.715    1800.088
     3230.137     10309.041    1760.509      3280.784     10332.580    1802.426
     3369.934     10388.715    1759.805      3410.352     10410.034    1795.082
     3510.101     10468.484    1759.509      3545.426     10489.340    1792.894
     3648.345     10546.973    1758.862      3681.636     10568.691    1793.014
     3788.019     10626.274    1761.600      3826.406     10653.604    1804.354
     3926.353     10704.584    1765.643      3960.036     10730.414    1807.227
     4065.509     10783.542    1773.990      4094.204     10806.916    1813.654
     4200.319     10858.923    1781.431      4229.001     10883.385    1823.669
     4346.603     10944.320    1811.096      4375.853     10970.082    1853.046
     4494.077     11031.246    1840.855      4526.711     11060.563    1885.681
     4625.005     11103.448    1843.766      4659.346     11134.598    1890.838
     4769.735     11188.241    1865.732      4803.430     11218.877    1911.876
     4918.976     11277.202    1897.640      4957.032     11311.773    1946.982
     5063.388     11361.784    1921.060      5105.320     11399.854    1971.629
     5197.002     11436.575    1923.828      5240.656     11476.237    1976.375
     5334.574     11514.952    1923.611      5368.835     11546.150    1968.149
     5477.841     11598.512    1927.009      5503.669     11622.119    1963.115
     5620.415     11681.452    1931.381      5643.302     11702.478    1964.650
     5761.015     11762.577    1931.133      5781.750     11781.758    1964.549
      238.345      8395.263    1737.197       238.623      8394.778    1778.863
      378.297      8476.304    1735.962       379.416      8475.891    1775.469
      518.029      8557.332    1734.983       520.259      8556.971    1773.725
      658.027      8638.293    1740.073       661.326      8638.042    1774.150
      797.516      8719.280    1740.259       802.402      8719.132    1772.893
      936.925      8800.248    1741.240       944.664      8800.221    1776.132
     1075.922      8881.197    1741.700      1086.268      8881.343    1774.181
     1216.661      8962.173    1747.006      1229.905      8962.536    1777.294
     1356.661      9043.141    1748.561      1369.331      9043.631    1771.641
     1495.058      9124.025    1746.646      1510.391      9124.787    1771.021
     1636.879      9205.080    1749.656      1657.156      9206.314    1779.396
     1774.895      9285.894    1746.658      1797.749      9287.564    1778.034
     1909.464      9366.352    1740.098      1938.214      9368.842    1777.387
     2046.957      9446.935    1738.496      2081.635      9450.470    1781.394
     2184.375      9527.394    1738.191      2219.144      9531.568    1778.001
     2324.440      9608.077    1740.609      2371.528      9614.753    1790.197
     2465.877      9688.934    1743.111      2515.200      9697.208    1791.745
     2604.658      9769.274    1742.812      2658.629      9779.984    1793.056
     2746.205      9850.077    1745.630      2800.448      9862.798    1793.185
     2886.126      9930.409    1747.567      2937.662      9944.685    1789.766
     3026.114     10010.560    1749.395      3078.630     10027.729    1790.187
     3168.019     10091.221    1751.688      3221.706     10111.826    1793.143
     3308.905     10171.441    1752.581      3364.280     10196.146    1797.169
     3455.053     10254.288    1758.152      3501.112     10277.870    1797.812
     3591.520     10332.233    1756.379      3630.151     10354.612    1792.276
     3731.175     10411.708    1758.942      3772.663     10438.512    1800.263
     3869.987     10490.546    1762.582      3919.813     10525.931    1815.693
     4008.891     10569.390    1769.190      4051.417     10602.099    1819.329
     4148.224     10648.614    1780.167      4181.818     10676.192    1824.635
     4291.139     10731.084    1801.487      4320.583     10756.419    1843.415
     4435.878     10815.539    1829.641      4462.969     10839.544    1868.018
     4572.145     10892.605    1844.683      4601.149     10918.730    1884.557
     4704.305     10965.957    1850.414      4733.212     10992.148    1889.592
     4856.672     11057.688    1882.807      4884.526     11082.896    1919.370
     5008.437     11148.852    1915.074      5041.534     11178.689    1954.319
     5140.391     11222.169    1920.801      5182.965     11260.403    1967.036
     5275.145     11298.061    1924.054      5315.247     11333.986    1967.900
     5416.814     11380.165    1928.316      5443.250     11403.830    1959.892
     5555.289     11459.405    1925.829      5578.595     11480.292    1956.012
     5698.319     11542.721    1930.669      5720.506     11562.666    1960.286
     5839.057     11623.972    1930.417      5859.102     11642.086    1960.075
      317.812      8257.622    1737.174       318.071      8257.168    1771.006
      457.844      8338.643    1737.700       459.091      8338.182    1776.015
      597.694      8419.669    1737.420       599.967      8419.305    1771.583
      737.455      8500.664    1738.714       741.464      8500.368    1774.418
      876.350      8581.665    1735.838       883.241      8581.470    1775.512
     1014.940      8662.617    1734.945      1024.539      8662.598    1772.278
     1153.990      8743.545    1737.357      1165.654      8743.715    1769.364
     1294.900      8824.512    1743.573      1309.979      8824.917    1774.538
     1434.058      8905.437    1744.799      1452.392      8906.118    1775.109
     1573.243      8986.347    1745.535      1592.867      8987.266    1773.393
     1715.697      9067.422    1749.473      1739.746      9068.788    1780.384
     1857.658      9148.509    1751.629      1881.419      9150.115    1780.323
     1994.148      9229.203    1747.719      2023.263      9231.520    1781.487
     2129.407      9309.683    1743.080      2163.581      9312.876    1781.435
     2266.904      9390.246    1742.225      2304.232      9394.349    1780.487
     2404.587      9470.708    1741.052      2448.128      9476.361    1781.119
     2540.926      9550.816    1737.882      2590.432      9558.425    1780.050
     2682.818      9631.667    1739.555      2743.810      9642.763    1788.416
     2821.955      9711.936    1739.354      2883.617      9725.220    1785.816
     2959.503      9791.562    1738.213      3021.496      9807.426    1782.271
     3098.528      9871.162    1737.875      3161.245      9890.275    1781.266
     3237.888      9950.468    1737.155      3302.417      9973.839    1783.287
     3382.642     10031.686    1740.572      3442.259     10057.140    1786.329
     3532.451     10115.810    1749.523      3583.806     10141.346    1792.099
     3673.949     10196.456    1753.845      3719.135     10222.243    1794.126
     3815.247     10277.121    1759.929      3867.364     10310.699    1809.022
     3952.077     10354.786    1763.648      4008.670     10395.241    1819.787
     4092.259     10434.718    1773.772      4138.715     10470.986    1824.422
     4228.849     10511.791    1784.302      4269.145     10545.632    1833.355
     4382.573     10603.937    1821.759      4426.140     10642.402    1878.416
     4523.110     10685.067    1845.515      4554.966     10713.845    1888.885
     4647.271     10751.211    1845.833      4679.004     10780.136    1888.914
     4791.301     10835.409    1870.000      4818.153     10859.838    1905.310
     4949.589     10932.499    1908.665      4973.262     10953.896    1937.491
     5089.073     11012.497    1922.184      5120.601     11040.782    1955.952
     5216.243     11081.565    1920.939      5253.137     11114.433    1956.987
     5352.901     11159.212    1924.345      5384.428     11187.131    1955.850
     5495.536     11242.175    1928.430      5519.438     11263.248    1955.074
     5633.834     11321.312    1925.995      5661.770     11345.886    1960.130
     5777.102     11404.812    1930.969      5801.716     11426.470    1961.751
     5917.954     11486.173    1930.737      5940.255     11505.855    1961.669
      397.281      8119.978    1735.925       397.486      8119.620    1759.544
      537.453      8200.958    1739.503       538.511      8200.571    1768.226
      677.400      8281.998    1738.607       679.961      8281.596    1772.538
      816.989      8363.026    1737.386       821.690      8362.692    1774.250
      955.596      8444.036    1733.677       963.228      8443.834    1772.145
     1093.919      8524.985    1732.856      1104.002      8524.972    1767.056
     1232.831      8605.906    1735.539      1247.141      8606.115    1770.440
     1372.779      8686.845    1740.083      1388.868      8687.261    1770.358
     1511.605      8767.751    1741.919      1532.368      8768.478    1773.784
     1651.891      8848.700    1745.293      1674.331      8849.677    1774.381
     1789.268      8929.497    1743.519      1817.714      8930.983    1776.060
     1933.154      9010.638    1747.952      1963.384      9012.503    1780.143
     2075.563      9091.742    1750.563      2106.035      9093.945    1781.836
     2214.729      9172.620    1749.988      2242.872      9175.003    1777.774
     2348.859      9252.971    1744.594      2378.562      9255.927    1771.149
     2485.834      9333.445    1741.284      2527.542      9338.345    1774.372
     2619.856      9413.357    1735.494      2672.641      9420.704    1773.828
     2762.675      9494.374    1736.644      2829.260      9505.341    1781.677
     2893.907      9573.190    1730.489      2960.023      9586.095    1772.312
     3026.596      9651.497    1725.516      3103.641      9669.501    1772.180
     3170.652      9731.983    1726.920      3246.278      9753.281    1772.825
     3310.983      9811.221    1725.618      3378.960      9834.296    1769.888
     3456.967      9892.372    1729.223      3527.646      9921.134    1780.004
     3605.114      9975.075    1736.885      3659.908     10001.516    1779.648
     3749.123     10056.494    1744.194      3797.674     10083.884    1784.878
     3891.142     10137.184    1752.219      3943.669     10171.193    1798.277
     4033.890     10218.748    1762.811      4087.052     10257.472    1811.015
     4171.575     10296.749    1772.112      4215.024     10331.747    1815.359
     4310.684     10375.836    1787.742      4358.730     10417.854    1842.073
     4450.819     10456.127    1810.691      4516.063     10516.435    1888.922
     4600.833     10546.191    1846.618      4640.226     10583.301    1898.440
     4732.516     10618.993    1859.362      4765.427     10649.934    1903.255
     4886.077     10712.134    1898.121      4913.743     10737.687    1933.073
     5034.124     10799.804    1922.002      5064.306     10827.194    1955.774
     5157.957     10865.646    1917.438      5195.070     10898.879    1953.603
     5288.657     10937.955    1918.742      5333.097     10977.317    1958.564
     5429.807     11019.625    1924.183      5462.030     11047.897    1954.465
     5570.668     11101.056    1924.802      5595.116     11122.330    1951.161
     5709.146     11180.423    1922.044      5734.685     11202.511    1952.557
     5854.193     11265.450    1928.945      5878.379     11286.300    1958.148
     5995.271     11347.021    1928.587      6017.139     11365.876    1957.857
      476.703      7982.415    1729.030       476.879      7982.107    1747.807
      616.718      8063.397    1731.706       617.899      8062.974    1760.802
      756.960      8144.351    1736.797       759.721      8143.931    1769.989
      896.561      8225.385    1735.496       901.392      8225.055    1769.801
     1035.108      8306.402    1732.180      1041.361      8306.245    1760.404
     1173.763      8387.354    1733.036      1183.542      8387.345    1762.510
     1312.007      8468.276    1734.393      1325.766      8468.470    1764.891
     1449.517      8549.157    1735.039      1467.336      8549.592    1766.442
     1589.340      8630.083    1739.563      1612.059      8630.821    1772.676
     1727.258      8710.932    1740.868      1757.274      8712.128    1777.407
     1864.208      8791.698    1739.710      1896.080      8793.205    1773.200
     2007.696      8872.766    1743.701      2041.430      8874.636    1776.247
     2151.643      8953.907    1747.343      2184.915      8956.061    1777.950
     2295.701      9035.125    1750.511      2335.588      9038.142    1785.081
     2433.829      9115.912    1747.187      2469.873      9119.110    1775.240
     2570.234      9196.466    1741.419      2612.554      9200.894    1770.578
     2698.748      9275.906    1730.896      2749.588      9282.220    1762.670
     2833.635      9355.752    1726.465      2896.047      9364.937    1761.928
     2963.737      9434.396    1720.400      3036.297      9447.025    1758.057
     3095.358      9512.346    1714.555      3179.441      9530.059    1757.661
     3246.454      9594.088    1718.326      3323.542      9613.958    1759.060
     3388.109      9673.545    1717.023      3453.425      9694.157    1755.156
     3526.795      9751.555    1715.286      3591.292      9776.400    1757.894
     3668.890      9830.411    1718.380      3723.899      9856.068    1757.807
     3819.214      9913.735    1730.282      3865.737      9939.692    1766.060
     3961.845      9993.749    1739.266      4005.561     10022.374    1774.350
     4101.181     10071.768    1747.516      4152.383     10110.275    1789.613
     4244.256     10152.935    1761.491      4299.959     10200.177    1812.334
     4394.553     10241.776    1788.696      4435.013     10279.535    1832.725
     4522.409     10310.332    1798.809      4600.011     10387.234    1891.733
     4688.582     10417.443    1856.492      4722.219     10451.405    1899.550
     4827.273     10496.666    1880.451      4863.431     10532.543    1927.430
     4980.203     10589.076    1918.635      5011.980     10619.331    1956.846
     5110.645     10659.970    1922.852      5144.660     10691.199    1958.297
     5229.639     10721.322    1915.018      5267.684     10755.429    1949.470
     5361.694     10794.945    1916.957      5409.841     10837.405    1957.724
     5507.203     10880.489    1924.648      5543.788     10912.336    1958.069
     5649.339     10963.053    1925.581      5675.333     10985.411    1953.462
     5788.760     11043.289    1923.285      5813.958     11064.741    1953.582
     5934.147     11128.569    1930.477      5958.732     11149.353    1959.755
     6075.321     11210.239    1930.085      6097.594     11229.008    1959.460
      556.129      7844.846    1722.692       556.379      7844.409    1748.584
      696.024      7925.816    1725.602       697.233      7925.396    1753.626
      835.765      8006.815    1726.302       838.846      8006.364    1760.863
      975.228      8087.804    1727.071       980.332      8087.470    1760.438
     1114.572      8168.769    1729.739      1121.334      8168.607    1757.313
     1254.409      8249.722    1734.546      1265.294      8249.714    1764.169
     1392.248      8330.661    1735.136      1407.608      8330.865    1766.579
     1529.591      8411.557    1735.966      1551.492      8412.052    1772.440
     1667.616      8492.445    1738.049      1691.127      8493.140    1770.711
     1804.319      8573.262    1738.218      1834.443      8574.337    1773.228
     1942.949      8654.115    1739.151      1979.265      8655.634    1775.352
     2080.275      8734.869    1737.179      2118.747      8736.743    1772.194
     2222.117      8815.815    1738.716      2261.280      8818.034    1772.102
     2371.155      8897.242    1745.000      2409.201      8899.757    1774.755
     2517.120      8978.609    1745.719      2560.523      8981.966    1775.852
     2656.043      9059.494    1739.235      2704.631      9063.916    1769.084
     2783.340      9139.112    1726.512      2841.047      9145.337    1758.425
     2911.211      9218.310    1717.943      2988.713      9228.271    1755.419
     3039.804      9296.947    1711.796      3130.781      9310.908    1751.395
     3181.357      9376.894    1710.248      3257.438      9391.209    1744.466
     3325.280      9457.087    1710.475      3402.697      9475.132    1746.415
     3464.588      9535.855    1708.463      3534.708      9556.160    1744.522
     3606.411      9614.837    1708.817      3677.353      9640.359    1750.712
     3744.743      9691.889    1710.018      3807.553      9719.845    1750.487
     3885.987      9769.438    1714.862      3940.208      9799.112    1752.435
     4027.787      9847.032    1722.578      4071.496      9875.982    1754.338
     4170.719      9925.655    1733.366      4228.818      9971.233    1777.181
     4316.494     10007.572    1747.960      4372.073     10058.210    1795.850
     4460.397     10089.632    1765.655      4509.151     10139.544    1818.505
     4592.233     10160.312    1778.255      4687.400     10265.457    1898.268
     4715.909     10223.235    1784.435      4820.395     10340.230    1917.208
     4930.309     10385.792    1905.911      4968.456     10426.680    1955.025
     5067.209     10460.506    1924.394      5102.531     10495.737    1965.863
     5187.239     10520.288    1919.842      5225.735     10556.394    1958.440
     5306.447     10581.563    1914.474      5353.271     10623.741    1955.111
     5441.310     10657.767    1918.922      5494.973     10704.889    1963.203
     5585.287     10741.989    1925.229      5629.895     10780.474    1965.918
     5730.226     10826.954    1929.258      5761.597     10853.600    1963.121
     5874.119     10910.959    1931.975      5900.377     10932.953    1963.917
     6018.068     10994.953    1936.919      6044.172     11016.583    1967.770
     6159.246     11076.619    1936.633      6182.853     11096.053    1967.636
      635.581      7707.231    1719.431       635.917      7706.642    1754.824
      775.247      7788.258    1718.363       776.767      7787.752    1752.477
      915.283      7869.170    1724.586       918.653      7868.699    1760.589
     1054.381      7950.188    1722.459      1059.149      7949.892    1751.423
     1192.695      8031.166    1722.081      1200.470      8030.990    1750.930
     1332.640      8112.094    1729.125      1344.685      8112.085    1759.061
     1472.872      8193.053    1735.916      1488.403      8193.240    1765.332
     1611.917      8274.006    1739.780      1633.934      8274.452    1774.105
     1749.889      8354.924    1741.260      1777.117      8355.635    1776.980
     1885.028      8435.737    1738.764      1917.800      8436.749    1774.994
     2019.848      8516.487    1735.490      2061.584      8517.976    1775.824
     2155.341      8597.190    1731.771      2194.789      8598.817    1766.938
     2297.701      8678.137    1733.560      2340.777      8680.200    1768.878
     2445.933      8759.415    1738.025      2489.167      8761.832    1769.629
     2597.376      8841.029    1740.067      2647.718      8844.324    1772.359
     2738.191      8922.079    1731.955      2794.001      8926.348    1763.460
     2872.489      9002.595    1720.794      2935.672      9008.220    1752.556
     2996.686      9081.912    1709.086      3082.067      9090.880    1746.341
     3129.680      9161.426    1703.733      3225.809      9174.208    1745.386
     3272.112      9241.904    1704.305      3353.417      9255.424    1738.845
     3409.265      9321.208    1703.200      3490.662      9338.121    1737.635
     3538.448      9397.727    1698.483      3615.969      9417.977    1734.119
     3679.663      9476.208    1699.687      3749.855      9499.304    1736.436
     3822.533      9554.772    1703.867      3884.188      9580.252    1739.407
     3964.803      9632.316    1708.830      4027.237      9665.114    1748.078
     4105.425      9708.121    1714.769      4152.826      9739.646    1746.611
     4248.908      9785.796    1724.580      4316.995      9841.685    1773.309
     4395.383      9867.309    1737.479      4456.087      9927.332    1789.076
     4538.172      9947.246    1750.739      4586.812     10003.470    1805.744
     4671.465     10015.533    1758.886      4724.918     10087.915    1836.734
     4794.777     10076.544    1766.276      4905.644     10226.011    1920.268
     5003.378     10245.956    1888.662      5050.354     10302.063    1951.588
     5144.306     10322.723    1914.278      5184.391     10364.867    1961.931
     5267.872     10384.431    1916.242      5311.728     10426.556    1959.886
     5391.541     10449.285    1916.815      5430.784     10484.809    1950.316
     5523.336     10522.719    1919.806      5572.897     10565.947    1960.505
     5661.017     10601.542    1921.959      5707.664     10641.291    1964.965
     5814.033     10693.286    1935.701      5848.709     10722.271    1973.179
     5958.702     10777.829    1940.289      5987.529     10801.524    1974.868
     6102.893     10861.917    1944.079      6131.166     10884.837    1977.061