NOECHO

-- =============================================================================
-- 
-- Exported from Reek_base_sim
-- 
-- Exported by user asny from RMS11 at 2020-02-19 15:52:00
-- 
-- =============================================================================

MAPUNITS
'METRES  ' /

MAPAXES
456514.870 5939176.871
456514.870 5927115.548
467218.607 5927115.548 /

GRIDUNIT
'METRES  ' '        ' /

SPECGRID
  40  64  14   1  F  /

GDORIENT
INC INC INC DOWN RIGHT /

COORD
        0.000      8808.149    1738.468         0.204      8807.728    1775.659
      139.988      8889.185    1738.469       141.024      8888.765    1776.983
      279.891      8970.206    1739.153       281.989      8969.803    1778.332
      419.711      9051.208    1739.862       423.169      9050.855    1778.170
      559.225      9132.212    1739.494       564.470      9131.932    1776.509
      698.543      9213.199    1741.654       705.792      9213.025    1774.868
      838.004      9294.165    1745.512       847.750      9294.125    1776.494
      977.230      9375.115    1747.812       989.762      9375.256    1778.538
     1116.031      9456.035    1747.092      1130.937      9456.401    1777.130
     1255.648      9536.950    1746.093      1270.481      9537.505    1772.862
     1392.870      9617.724    1740.829      1409.042      9618.543    1768.084
     1530.066      9698.409    1737.727      1547.535      9699.537    1764.547
     1667.723      9779.024    1738.675      1688.907      9780.717    1766.854
     1805.336      9859.530    1740.621      1833.062      9862.220    1772.828
     1943.043      9939.903    1742.587      1976.331      9943.804    1778.264
     2081.573     10020.215    1745.457      2118.551     10025.438    1783.998
     2218.248     10100.031    1746.402      2258.461     10106.867    1787.497
     2356.207     10179.760    1747.986      2402.880     10189.284    1793.559
     2494.896     10259.359    1750.506      2546.742     10271.968    1797.747
     2635.152     10339.124    1754.936      2686.664     10353.917    1798.932
     2777.156     10419.309    1760.771      2828.871     10436.665    1803.847
     2917.476     10498.875    1764.224      2971.663     10519.860    1810.827
     3056.391     10577.719    1764.930      3113.294     10602.797    1816.264
     3197.169     10657.251    1765.377      3253.009     10684.905    1817.800
     3340.573     10738.217    1767.433      3390.150     10765.524    1816.494
     3478.606     10816.217    1765.363      3527.935     10846.192    1815.766
     3617.654     10894.610    1766.718      3665.492     10926.438    1816.560
     3759.203     10974.708    1772.261      3804.570     11007.457    1822.412
     3901.454     11055.606    1780.514      3944.332     11088.807    1833.277
     4042.448     11135.857    1793.536      4085.621     11171.235    1850.563
     4187.171     11219.575    1818.314      4231.970     11257.903    1876.069
     4332.734     11304.511    1842.897      4378.291     11344.667    1899.692
     4469.258     11381.690    1852.500      4518.414     11425.831    1914.680
     4612.917     11465.384    1872.525      4659.514     11507.677    1932.100
     4761.285     11553.498    1901.775      4800.202     11589.061    1949.089
     4904.255     11636.762    1920.349      4939.882     11669.513    1959.537
     5043.158     11716.299    1928.668      5079.041     11749.503    1966.766
     5181.105     11794.931    1931.440      5216.152     11827.593    1971.663
     5321.886     11876.193    1935.619      5354.030     11906.379    1977.566
     5462.489     11957.292    1940.204      5490.047     11983.391    1981.073
     5602.892     12038.193    1939.958      5627.082     12061.322    1980.923
       79.458      8670.499    1738.498        79.696      8670.079    1775.701
      219.506      8751.531    1738.516       220.549      8751.123    1777.035
      359.494      8832.549    1739.196       361.566      8832.162    1778.349
      499.440      8913.552    1739.895       502.792      8913.221    1778.184
      639.142      8994.559    1739.569       644.135      8994.304    1776.532
      778.641      9075.554    1741.715       785.614      9075.397    1774.890
      918.245      9156.533    1745.563       927.768      9156.503    1776.507
     1057.429      9237.497    1747.839      1069.767      9237.640    1778.546
     1196.333      9318.431    1747.159      1210.875      9318.787    1777.124
     1336.174      9399.368    1746.074      1350.297      9399.887    1772.861
     1473.629      9480.176    1740.868      1488.734      9480.920    1768.101
     1610.993      9560.899    1737.835      1627.194      9561.914    1764.592
     1749.283      9641.602    1738.790      1768.680      9643.098    1766.895
     1887.682      9722.233    1740.726      1913.154      9724.619    1772.851
     2026.246      9802.787    1742.774      2057.153      9806.278    1778.315
     2165.068      9883.252    1745.583      2199.833      9887.988    1784.037
     2301.970      9963.261    1746.542      2340.199      9969.540    1787.547
     2440.866     10043.359    1748.194      2486.289     10052.332    1793.727
     2580.860     10123.507    1750.827      2631.885     10135.550    1797.747
     2722.358     10203.931    1755.391      2773.168     10218.125    1799.016
     2864.808     10284.647    1761.184      2915.785     10301.328    1804.109
     3004.993     10364.603    1764.464      3058.165     10384.724    1811.150
     3143.988     10443.932    1765.082      3199.107     10467.727    1816.429
     3285.178     10524.104    1765.644      3338.203     10549.894    1817.900
     3428.454     10605.440    1767.372      3474.885     10630.627    1816.507
     3567.144     10684.322    1765.426      3612.954     10711.815    1815.881
     3706.300     10763.300    1767.085      3750.737     10792.590    1816.880
     3846.741     10843.096    1772.736      3889.020     10873.418    1822.961
     3987.122     10922.958    1781.057      4026.687     10953.462    1833.738
     4126.655     11002.286    1794.307      4165.681     11034.180    1850.833
     4269.979     11084.973    1819.037      4309.436     11118.664    1875.688
     4413.540     11168.228    1843.049      4454.064     11203.874    1899.058
     4549.785     11245.194    1852.603      4594.432     11285.173    1914.463
     4693.581     11329.020    1872.832      4735.793     11367.180    1931.751
     4841.173     11416.404    1901.859      4876.272     11448.302    1948.619
     4983.477     11499.045    1920.325      5016.911     11529.570    1959.433
     5122.612     11578.804    1928.676      5157.252     11610.601    1966.847
     5261.174     11658.024    1931.483      5295.494     11689.722    1971.820
     5402.530     11739.823    1935.699      5434.075     11769.160    1977.713
     5543.399     11821.177    1940.229      5570.906     11846.959    1981.160
     5683.631     11901.932    1939.979      5708.129     11925.101    1981.015
      158.911      8532.880    1736.506       159.178      8532.414    1772.639
      298.937      8613.914    1735.877       300.043      8613.481    1773.283
      438.920      8694.925    1736.820       441.261      8694.496    1777.375
      578.847      8775.926    1737.604       582.492      8775.578    1776.019
      718.061      8856.952    1734.551       723.433      8856.693    1771.254
      857.793      8937.926    1738.943       865.138      8937.779    1771.449
      997.374      9018.901    1743.090      1007.853      9018.882    1774.726
     1136.911      9099.868    1746.568      1150.916      9100.036    1778.612
     1274.728      9180.782    1744.347      1291.583      9181.181    1776.885
     1416.054      9261.765    1746.573      1432.721      9262.347    1776.699
     1552.201      9342.531    1739.660      1569.209      9343.318    1769.111
     1688.593      9423.210    1735.374      1705.400      9424.189    1762.336
     1826.832      9503.911    1735.948      1845.280      9505.228    1762.463
     1965.884      9584.604    1738.225      1991.853      9586.846    1770.741
     2104.807      9665.212    1740.290      2137.378      9668.600    1776.784
     2243.260      9745.660    1742.440      2279.996      9750.273    1781.127
     2379.863      9825.667    1742.806      2422.591      9832.162    1785.587
     2518.934      9905.814    1744.140      2566.274      9914.515    1787.984
     2658.019      9985.770    1745.051      2715.147      9998.380    1793.671
     2800.785     10066.468    1749.683      2851.352     10079.750    1790.328
     2943.766     10147.314    1755.070      2994.293     10162.940    1795.520
     3084.100     10227.336    1757.954      3137.553     10246.560    1802.964
     3224.328     10307.197    1759.337      3280.445     10330.363    1809.693
     3364.614     10386.969    1759.048      3418.635     10412.270    1810.528
     3509.881     10469.275    1763.098      3553.476     10492.218    1807.553
     3645.000     10546.167    1758.066      3693.095     10574.386    1809.331
     3784.694     10625.363    1760.753      3827.689     10653.267    1807.834
     3926.247     10705.840    1768.555      3965.755     10733.911    1814.733
     4066.242     10785.378    1778.273      4103.536     10814.004    1827.398
     4201.579     10861.255    1787.304      4242.288     10894.481    1846.307
     4348.439     10946.799    1818.210      4388.428     10980.933    1876.713
     4494.887     11032.577    1847.699      4533.800     11066.769    1902.648
     4626.106     11105.105    1851.132      4670.281     11144.542    1912.936
     4770.858     11189.773    1872.686      4812.188     11226.913    1929.861
     4924.073     11282.170    1907.881      4959.053     11313.665    1952.783
     5062.424     11361.223    1920.474      5093.991     11389.685    1956.011
     5199.458     11439.091    1926.252      5232.640     11469.084    1961.168
     5335.801     11516.317    1926.240      5371.690     11548.878    1965.828
     5478.747     11599.531    1931.336      5513.026     11630.783    1973.514
     5620.800     11681.944    1936.397      5651.232     11709.861    1977.492
     5761.197     11762.843    1936.132      5788.444     11788.028    1977.317
      238.382      8395.233    1735.640       238.664      8394.739    1769.916
      378.456      8476.264    1735.501       379.651      8475.788    1772.694
      518.312      8557.308    1733.785       520.684      8556.874    1771.382
      657.904      8638.333    1732.359       662.152      8637.935    1773.013
      796.988      8719.346    1730.749       803.234      8719.054    1769.258
      936.511      8800.312    1735.107       944.661      8800.154    1767.960
     1075.287      8881.277    1737.769      1085.878      8881.260    1767.131
     1215.625      8962.236    1743.864      1229.618      8962.395    1773.448
     1355.162      9043.187    1745.886      1371.291      9043.544    1774.967
     1497.069      9124.202    1749.987      1512.979      9124.716    1776.628
     1637.180      9205.173    1750.281      1656.509      9205.993    1781.165
     1772.278      9285.871    1743.504      1790.327      9286.832    1770.708
     1906.858      9366.412    1737.960      1926.053      9367.660    1764.468
     2041.598      9446.803    1733.871      2069.398      9448.983    1767.257
     2183.875      9527.705    1739.264      2219.267      9531.048    1776.411
     2319.516      9607.873    1738.186      2364.839      9613.055    1781.613
     2460.436      9688.489    1741.995      2518.471      9696.557    1793.644
     2596.274      9768.193    1739.898      2650.717      9777.396    1784.607
     2737.585      9848.606    1741.740      2799.038      9861.161    1788.589
     2881.418      9929.588    1745.845      2941.203      9944.213    1789.621
     3019.297     10009.010    1746.320      3081.506     10027.047    1792.482
     3163.224     10090.093    1751.130      3221.982     10110.056    1797.711
     3306.923     10171.313    1755.124      3363.058     10193.401    1802.707
     3450.750     10252.839    1758.404      3502.323     10276.099    1804.463
     3589.896     10332.296    1757.776      3634.228     10355.010    1799.774
     3728.447     10411.205    1757.961      3773.015     10436.924    1802.193
     3868.715     10490.970    1762.546      3909.217     10517.047    1804.324
     4009.089     10570.844    1770.589      4047.771     10598.314    1813.537
     4147.280     10649.137    1780.546      4182.442     10676.316    1824.640
     4287.691     10729.229    1799.085      4327.786     10762.290    1854.835
     4435.121     10815.613    1831.896      4474.068     10849.131    1887.748
     4572.139     10893.307    1849.002      4610.690     10927.349    1903.210
     4708.776     10970.660    1861.201      4750.290     11007.767    1918.634
     4860.564     11061.670    1892.281      4890.585     11088.581    1932.338
     5007.125     11148.042    1915.951      5036.047     11173.933    1950.386
     5135.996     11218.612    1915.968      5165.896     11245.325    1947.353
     5270.894     11294.606    1918.897      5299.730     11320.341    1947.237
     5413.552     11377.532    1924.787      5448.248     11408.510    1960.098
     5557.016     11461.177    1929.803      5590.128     11490.805    1966.823
     5699.153     11543.645    1933.993      5730.909     11572.166    1972.710
     5839.694     11624.674    1933.745      5868.054     11650.294    1972.471
      317.851      8257.589    1733.668       318.111      8257.133    1762.423
      457.754      8338.698    1728.060       458.941      8338.224    1761.948
      597.372      8419.752    1726.143       599.796      8419.308    1761.120
      736.797      8500.756    1726.757       741.412      8500.326    1766.528
      875.604      8581.756    1726.193       883.217      8581.403    1768.244
     1015.742      8662.688    1733.979      1026.075      8662.490    1771.661
     1155.323      8743.652    1738.774      1168.950      8743.623    1773.511
     1295.144      8824.617    1743.280      1308.895      8824.755    1770.505
     1432.645      8905.535    1742.497      1446.703      8905.816    1766.341
     1574.345      8986.527    1747.422      1592.699      8987.060    1775.746
     1716.314      9067.551    1751.065      1739.858      9068.450    1785.085
     1853.770      9148.390    1748.064      1880.179      9149.648    1784.087
     1989.617      9229.071    1743.833      2015.774      9230.592    1776.994
     2124.168      9309.551    1738.034      2156.922      9311.846    1774.144
     2260.005      9389.959    1735.499      2299.385      9393.288    1772.818
     2397.413      9470.333    1735.687      2445.188      9475.231    1776.034
     2534.170      9550.430    1735.090      2590.325      9557.459    1778.458
     2675.531      9630.941    1736.818      2739.325      9640.714    1782.370
     2821.094      9712.187    1740.566      2885.875      9724.266    1784.013
     2954.328      9790.930    1736.493      3018.094      9805.281    1778.109
     3092.354      9870.206    1736.066      3156.261      9887.398    1778.889
     3233.075      9949.910    1736.993      3285.966      9966.755    1775.636
     3378.346     10031.125    1741.186      3438.287     10053.506    1788.260
     3530.839     10115.839    1751.233      3579.802     10137.088    1791.335
     3671.151     10195.889    1752.992      3723.263     10221.962    1798.091
     3814.532     10277.626    1759.515      3864.016     10305.889    1804.479
     3952.555     10356.348    1763.886      3995.218     10383.842    1804.474
     4091.654     10435.543    1772.522      4129.063     10462.435    1811.028
     4224.031     10509.318    1778.437      4256.839     10535.299    1816.525
     4377.864     10600.630    1815.999      4419.213     10635.753    1868.764
     4520.884     10683.751    1844.236      4559.405     10717.673    1897.209
     4644.661     10749.708    1844.943      4683.934     10784.927    1899.287
     4790.176     10835.064    1871.962      4826.019     10867.334    1920.118
     4948.924     10932.370    1911.305      4975.274     10956.024    1944.195
     5084.866     11009.176    1919.023      5114.859     11035.962    1951.842
     5209.674     11076.163    1913.342      5238.734     11101.972    1941.539
     5344.951     11152.565    1915.240      5373.186     11177.521    1941.080
     5489.985     11237.599    1922.234      5526.682     11269.926    1956.856
     5633.550     11321.317    1926.653      5669.463     11352.907    1963.377
     5777.045     11404.962    1931.726      5810.367     11434.298    1968.364
     5917.659     11486.063    1931.412      5947.547     11512.464    1968.170
      397.313      8119.956    1730.018       397.556      8119.532    1754.822
      537.292      8201.035    1727.478       538.541      8200.541    1760.178
      677.126      8282.066    1728.829       680.077      8281.531    1767.488
      816.378      8363.115    1727.669       821.330      8362.657    1766.090
      955.418      8444.112    1728.713       963.942      8443.718    1770.998
     1094.269      8525.084    1730.981      1106.607      8524.840    1771.645
     1232.826      8606.041    1733.739      1249.035      8605.986    1771.934
     1371.136      8686.976    1736.251      1389.450      8687.126    1770.675
     1510.255      8767.902    1739.666      1531.619      8768.272    1774.214
     1649.049      8848.806    1741.357      1672.926      8849.414    1775.635
     1789.407      8929.737    1743.625      1820.724      8930.783    1784.425
     1928.200      9010.595    1743.017      1958.296      9011.853    1779.216
     2071.072      9091.625    1746.714      2108.319      9093.523    1787.700
     2208.341      9172.350    1742.756      2248.073      9174.793    1781.027
     2341.232      9252.667    1736.190      2388.496      9256.173    1775.274
     2477.075      9333.003    1733.823      2530.238      9337.788    1772.578
     2612.764      9413.089    1731.364      2680.631      9420.583    1776.522
     2759.115      9494.306    1735.175      2823.522      9503.077    1774.885
     2895.135      9574.050    1732.179      2959.129      9584.740    1769.529
     3021.682      9651.423    1724.232      3095.448      9666.468    1766.618
     3165.271      9731.649    1726.017      3241.950      9750.583    1771.532
     3311.526      9812.694    1729.078      3377.300      9832.172    1771.923
     3456.426      9893.605    1732.072      3514.985      9914.250    1773.390
     3601.976      9975.064    1736.417      3657.588      9998.259    1777.634
     3748.217     10057.361    1743.716      3803.307     10084.357    1787.039
     3897.173     10141.996    1756.100      3946.621     10170.167    1797.020
     4032.473     10219.120    1759.981      4081.039     10250.860    1801.903
     4172.670     10299.032    1771.279      4211.287     10327.650    1807.861
     4308.302     10375.241    1783.317      4344.125     10404.876    1822.521
     4447.086     10453.944    1805.006      4508.452     10508.835    1877.950
     4597.305     10543.729    1842.053      4638.127     10581.444    1896.448
     4727.666     10615.303    1854.122      4763.510     10648.633    1902.826
     4878.449     10705.772    1890.810      4911.042     10735.686    1932.974
     5028.859     10795.606    1918.507      5057.029     10821.078    1951.061
     5153.499     10862.204    1913.028      5190.302     10895.105    1950.183
     5281.163     10931.799    1909.374      5319.564     10965.799    1944.211
     5423.971     11014.914    1916.327      5454.229     11041.476    1942.573
     5566.407     11097.683    1919.904      5600.718     11127.583    1950.624
     5711.132     11182.414    1924.871      5747.758     11214.157    1960.067
     5856.025     11267.250    1931.400      5888.455     11295.278    1963.894
     5996.550     11348.289    1931.084      6025.849     11373.620    1963.712
      476.765      7982.342    1725.048       476.986      7981.955    1746.476
      616.698      8063.422    1723.738       617.757      8063.011    1749.132
      756.403      8144.467    1725.372       759.484      8143.919    1762.095
      896.120      8225.458    1729.539       902.155      8224.909    1771.939
     1034.737      8306.494    1728.577      1043.903      8306.070    1769.796
     1173.396      8387.472    1730.325      1186.932      8387.193    1770.881
     1311.761      8468.432    1732.466      1329.067      8468.348    1770.444
     1448.453      8549.361    1732.146      1472.608      8549.507    1775.817
     1587.450      8630.280    1736.192      1613.724      8630.657    1777.329
     1726.004      8711.179    1738.606      1759.585      8711.898    1784.178
     1863.161      8792.012    1737.720      1900.403      8793.066    1781.998
     2004.051      8872.922    1740.000      2045.895      8874.411    1784.389
     2149.083      8954.007    1744.950      2194.571      8955.989    1787.828
     2289.899      9034.938    1743.558      2334.685      9037.300    1780.213
     2429.134      9115.772    1740.335      2480.845      9119.062    1776.854
     2571.585      9196.823    1739.624      2627.806      9201.160    1774.882
     2703.094      9276.905    1732.574      2763.399      9282.646    1767.484
     2836.883      9356.847    1727.960      2912.272      9365.814    1768.109
     2972.056      9436.569    1724.735      3056.621      9448.999    1767.115
     3103.080      9515.021    1719.464      3188.503      9530.556    1762.621
     3248.369      9595.677    1721.198      3336.048      9615.321    1767.068
     3391.979      9676.069    1721.596      3457.352      9693.920    1758.807
     3530.025      9754.661    1719.573      3588.269      9773.933    1755.853
     3670.865      9833.677    1720.881      3720.921      9853.677    1754.332
     3815.877      9914.339    1727.359      3863.585      9937.268    1761.536
     3967.416      9999.250    1741.700      4014.826     10026.388    1777.546
     4102.750     10075.325    1746.764      4155.681     10110.919    1788.188
     4246.376     10156.752    1761.014      4296.793     10196.128    1805.336
     4396.272     10244.647    1787.964      4436.938     10280.691    1831.321
     4523.055     10312.416    1797.426      4595.274     10382.100    1883.146
     4684.189     10413.868    1849.810      4719.624     10449.215    1895.880
     4824.520     10494.745    1877.407      4857.037     10526.860    1920.635
     4974.065     10583.981    1912.990      5004.998     10613.389    1951.311
     5105.778     10656.202    1918.969      5139.617     10687.273    1955.630
     5228.836     10721.204    1913.028      5273.066     10760.915    1954.854
     5361.525     10795.297    1912.750      5400.636     10829.873    1946.636
     5503.695     10877.858    1917.654      5538.557     10908.302    1947.054
     5649.403     10963.462    1923.375      5678.723     10988.787    1949.009
     5791.134     11045.596    1925.272      5820.713     11070.899    1952.984
     5935.961     11130.341    1931.908      5964.746     11154.798    1959.032
     6076.444     11211.364    1931.565      6102.532     11233.462    1958.768
      556.185      7844.782    1718.371       556.460      7844.301    1743.842
      695.743      7925.942    1713.128       697.129      7925.422    1743.594
      835.528      8006.891    1720.967       838.889      8006.310    1757.657
      975.498      8087.837    1728.586       982.304      8087.228    1772.198
     1114.204      8168.869    1728.755      1124.092      8168.412    1769.350
     1253.013      8249.852    1730.683      1267.516      8249.538    1770.426
     1390.493      8330.829    1730.509      1408.672      8330.711    1767.953
     1526.693      8411.767    1729.616      1548.658      8411.844    1768.240
     1665.187      8492.687    1733.375      1691.877      8492.977    1774.383
     1803.375      8573.593    1736.015      1837.752      8574.172    1780.861
     1938.862      8654.409    1733.999      1977.691      8655.288    1777.078
     2080.040      8735.317    1736.861      2121.995      8736.526    1777.060
     2221.715      8816.234    1738.334      2263.947      8817.743    1773.213
     2365.893      8897.260    1738.999      2406.122      8899.014    1767.401
     2515.529      8978.629    1740.528      2560.297      8980.991    1767.829
     2657.812      9059.733    1736.513      2711.694      9063.181    1766.188
     2794.492      9140.486    1730.500      2859.218      9145.617    1764.001
     2924.479      9220.454    1723.405      3006.356      9228.744    1761.731
     3054.858      9299.928    1718.133      3136.302      9310.328    1753.759
     3185.307      9378.654    1712.684      3269.564      9392.143    1751.206
     3322.269      9457.693    1710.352      3405.048      9474.317    1749.119
     3460.841      9536.526    1707.617      3532.214      9554.307    1743.688
     3601.451      9615.358    1707.017      3662.125      9634.014    1740.834
     3739.919      9692.831    1707.290      3794.047      9713.361    1740.160
     3886.885      9773.195    1714.661      3944.812      9800.356    1752.870
     4037.863      9856.532    1728.077      4091.845      9887.633    1765.736
     4170.550      9929.194    1731.347      4236.307      9975.166    1779.165
     4319.322     10012.938    1748.030      4378.345     10062.443    1797.762
     4459.526     10091.001    1762.339      4515.199     10145.286    1821.838
     4593.178     10163.076    1776.792      4684.205     10261.602    1889.611
     4718.128     10226.794    1784.055      4814.053     10333.927    1908.255
     4925.785     10381.892    1900.567      4959.330     10417.953    1944.942
     5063.871     10458.095    1921.716      5099.688     10493.949    1965.325
     5184.662     10518.665    1917.395      5226.751     10558.289    1961.515
     5308.559     10584.114    1914.361      5358.476     10629.274    1959.755
     5445.669     10662.136    1917.991      5488.634     10700.055    1954.111
     5583.581     10740.957    1918.911      5614.861     10768.099    1944.866
     5728.698     10826.022    1923.709      5759.691     10852.532    1950.563
     5874.986     10912.007    1929.396      5903.503     10936.077    1956.030
     6019.000     10995.997    1934.989      6045.590     11018.208    1959.303
     6159.512     11077.045    1934.688      6183.657     11097.082    1959.180
      635.635      7707.170    1717.160       635.975      7706.576    1746.796
      775.309      7788.261    1715.557       776.783      7787.731    1745.535
      914.768      7869.290    1718.517       917.469      7868.841    1746.041
     1054.322      7950.264    1724.203      1060.238      7949.748    1759.241
     1192.790      8031.287    1724.852      1201.988      8030.863    1759.225
     1330.933      8112.273    1725.858      1346.652      8111.917    1765.305
     1470.473      8193.223    1730.433      1486.710      8193.085    1761.931
     1606.878      8274.189    1729.969      1628.907      8274.200    1767.771
     1744.466      8355.132    1732.506      1774.629      8355.333    1778.167
     1880.547      8436.041    1732.603      1914.375      8436.430    1775.402
     2015.784      8516.896    1731.054      2058.163      8517.576    1775.843
     2155.409      8597.775    1732.737      2205.719      8598.838    1777.615
     2295.501      8678.631    1732.758      2348.624      8680.068    1772.785
     2437.640      8759.525    1731.099      2486.270      8761.174    1762.058
     2591.900      8840.934    1732.864      2648.661      8843.306    1764.076
     2734.144      8921.979    1725.944      2800.248      8925.343    1759.053
     2877.359      9003.164    1720.848      2950.250      9007.689    1755.445
     3005.331      9083.286    1712.168      3092.790      9090.213    1749.937
     3141.328      9163.554    1709.016      3231.923      9173.237    1748.778
     3281.989      9244.141    1709.368      3348.529      9253.421    1738.420
     3405.922      9321.683    1702.734      3477.045      9334.350    1733.541
     3536.449      9399.032    1697.862      3607.551      9415.003    1730.707
     3672.888      9476.550    1696.344      3738.214      9494.949    1729.757
     3812.784      9554.067    1698.177      3876.091      9576.422    1733.651
     3957.332      9632.294    1703.349      4028.873      9664.512    1747.476
     4098.935      9708.404    1709.342      4175.110      9752.355    1759.586
     4244.736      9786.913    1720.121      4319.852      9841.613    1772.960
     4390.128      9866.040    1731.214      4452.580      9922.622    1783.757
     4534.289      9945.636    1744.637      4588.291     10004.955    1804.852
     4671.690     10017.711    1757.505      4713.402     10073.106    1816.281
     4796.658     10079.523    1766.268      4898.441     10217.736    1908.232
     5001.957     10245.423    1886.449      5044.875     10297.304    1945.364
     5138.806     10317.974    1907.979      5180.296     10362.000    1959.295
     5265.032     10382.564    1912.929      5314.050     10429.984    1964.224
     5394.199     10452.410    1917.263      5445.722     10499.363    1963.520
     5528.994     10528.252    1920.573      5573.106     10566.997    1956.915
     5664.386     10604.877    1920.179      5703.564     10638.527    1952.172
     5812.898     10692.751    1928.273      5844.412     10719.348    1955.338
     5959.015     10778.461    1934.247      5986.563     10801.343    1959.736
     6103.364     10862.628    1938.886      6128.433     10883.176    1961.612