NOECHO

-- =============================================================================
-- 
-- Exported from Reek_base_sim
-- 
-- Exported by user asny from RMS11 at 2020-02-19 15:49:46
-- 
-- =============================================================================

MAPUNITS
'METRES  ' /

MAPAXES
456514.884 5939177.336
456514.884 5927115.548
467218.463 5927115.548 /

GRIDUNIT
'METRES  ' '        ' /

SPECGRID
  40  64  14   1  F  /

GDORIENT
INC INC INC DOWN RIGHT /

COORD
        0.000      8808.129    1738.599         0.153      8807.793    1802.634
      140.003      8889.161    1742.051       140.892      8888.832    1803.611
      279.888      8970.193    1744.212       281.736      8969.868    1800.019
      419.554      9051.213    1744.334       422.753      9050.913    1796.824
      559.063      9132.208    1744.803       564.051      9131.972    1795.423
      698.369      9213.184    1744.532       705.432      9213.053    1793.532
      837.580      9294.139    1743.866       846.315      9294.153    1788.198
      976.661      9375.070    1742.178       987.003      9375.250    1783.291
     1115.297      9455.961    1738.822      1129.421      9456.405    1786.229
     1253.581      9536.793    1735.477      1271.695      9537.611    1788.969
     1391.634      9617.554    1733.021      1410.641      9618.679    1782.861
     1530.039      9698.269    1733.795      1549.799      9699.735    1779.593
     1668.175      9778.885    1735.834      1688.075      9780.691    1776.194
     1806.993      9859.479    1739.614      1829.403      9861.930    1779.284
     1946.171      9940.018    1744.361      1972.656      9943.500    1785.004
     2083.971     10020.229    1746.556      2115.056     10025.137    1788.219
     2221.328     10100.126    1746.151      2259.208     10107.303    1792.503
     2359.097     10179.803    1744.509      2401.952     10189.518    1795.315
     2498.597     10259.610    1746.340      2544.145     10271.884    1799.639
     2638.941     10339.462    1751.289      2686.552     10354.594    1806.056
     2777.873     10418.627    1755.458      2827.256     10436.971    1810.371
     2917.050     10497.598    1758.989      2968.274     10519.567    1812.549
     3056.737     10576.577    1760.742      3107.449     10601.332    1810.842
     3199.996     10657.379    1763.294      3247.262     10683.260    1809.363
     3343.123     10738.436    1763.860      3384.581     10763.558    1805.338
     3482.432     10817.289    1760.870      3520.783     10842.728    1801.164
     3620.738     10895.337    1759.421      3657.274     10921.614    1799.830
     3761.056     10974.800    1762.672      3796.375     11002.075    1804.895
     3902.421     11055.274    1769.904      3933.560     11080.796    1811.073
     4042.357     11134.818    1781.545      4071.785     11160.087    1822.517
     4187.376     11219.087    1807.230      4218.124     11246.395    1848.228
     4333.449     11304.744    1833.626      4367.717     11335.848    1876.814
     4468.275     11380.372    1843.548      4509.640     11418.371    1894.716
     4612.649     11464.859    1866.229      4652.878     11502.015    1914.805
     4763.604     11555.530    1897.008      4797.741     11587.131    1935.556
     4906.160     11638.469    1913.849      4940.829     11670.633    1951.158
     5042.934     11716.045    1919.337      5078.980     11749.591    1959.978
     5181.200     11794.995    1922.535      5217.852     11829.246    1969.852
     5321.586     11875.917    1926.931      5354.968     11907.274    1976.968
     5461.953     11956.813    1930.848      5490.582     11983.880    1980.568
     5602.709     12038.066    1930.635      5627.597     12061.788    1980.416
       79.446      8670.494    1738.649        79.640      8670.154    1802.688
      219.477      8751.524    1742.084       220.399      8751.197    1803.648
      359.403      8832.552    1744.256       361.260      8832.238    1800.073
      499.124      8913.571    1744.396       502.317      8913.286    1796.865
      638.708      8994.567    1744.841       643.718      8994.346    1795.458
      778.115      9075.545    1744.586       785.216      9075.433    1793.555
      917.460      9156.507    1743.916       926.278      9156.538    1788.200
     1056.714      9237.449    1742.207      1067.221      9237.645    1783.338
     1195.521      9318.355    1738.854      1209.747      9318.810    1786.269
     1333.882      9399.206    1735.520      1351.737      9400.008    1788.954
     1472.028      9479.991    1733.082      1490.238      9481.052    1782.873
     1610.589      9560.742    1733.858      1628.995      9562.076    1779.605
     1748.993      9641.416    1735.928      1767.231      9643.024    1776.244
     1888.210      9722.093    1739.703      1908.790      9724.274    1779.300
     2027.688      9802.729    1744.454      2052.356      9805.865    1785.027
     2165.867      9883.083    1746.668      2195.467      9887.598    1788.252
     2303.920      9963.222    1746.245      2340.908      9970.001    1792.555
     2442.551     10043.247    1744.662      2484.932     10052.555    1795.342
     2583.016     10123.509    1746.666      2627.525     10135.156    1799.782
     2723.578     10203.688    1751.559      2768.919     10217.720    1806.157
     2862.532     10283.173    1755.754      2908.669     10299.905    1810.460
     3001.917     10362.550    1759.220      3049.883     10382.693    1812.604
     3142.360     10442.216    1760.991      3190.124     10465.119    1810.879
     3286.224     10523.680    1763.502      3330.336     10547.472    1809.376
     3429.845     10605.399    1763.809      3468.381     10628.456    1805.316
     3570.040     10685.252    1760.791      3605.486     10708.521    1801.164
     3708.246     10763.692    1759.521      3742.336     10788.011    1800.061
     3847.580     10842.818    1763.066      3880.559     10868.136    1805.293
     3987.319     10922.293    1770.230      4016.112     10945.792    1811.384
     4126.213     11001.162    1782.234      4152.936     11024.028    1822.963
     4269.957     11084.423    1807.964      4297.051     11108.411    1848.141
     4413.957     11168.249    1833.735      4444.116     11195.536    1876.157
     4548.726     11243.855    1843.656      4585.123     11277.164    1894.056
     4692.467     11327.755    1866.334      4727.514     11359.969    1914.026
     4841.508     11416.610    1896.675      4871.316     11444.038    1934.599
     4983.819     11499.301    1913.662      5015.288     11528.289    1950.639
     5121.818     11578.024    1919.333      5155.717     11609.320    1959.890
     5261.088     11657.920    1922.574      5296.079     11690.328    1969.776
     5401.968     11739.303    1926.981      5434.211     11769.299    1977.038
     5542.334     11820.203    1930.867      5570.656     11846.707    1980.652
     5682.774     11901.166    1930.651      5707.853     11924.809    1980.498
      158.884      8532.904    1735.082       159.121      8532.490    1798.021
      298.882      8613.917    1739.490       299.961      8613.530    1801.518
      438.737      8694.941    1741.010       440.870      8694.589    1797.537
      578.338      8775.956    1740.653       581.871      8775.660    1792.231
      717.965      8856.936    1742.580       723.136      8856.734    1788.937
      857.111      8937.910    1741.067       864.897      8937.818    1788.491
      996.357      9018.862    1740.668      1006.565      9018.928    1786.058
     1135.728      9099.801    1740.074      1146.698      9100.024    1778.154
     1274.310      9180.700    1736.891      1289.357      9181.187    1781.598
     1412.266      9261.534    1733.247      1431.143      9262.364    1784.637
     1551.063      9342.359    1733.155      1570.189      9343.427    1782.093
     1689.763      9423.136    1734.552      1709.502      9424.489    1781.568
     1827.516      9503.781    1735.302      1846.769      9505.370    1776.570
     1966.875      9584.488    1739.492      1990.086      9586.779    1782.244
     2106.586      9665.175    1744.059      2134.019      9668.408    1787.066
     2244.504      9745.534    1744.989      2276.647      9750.081    1787.994
     2382.758      9825.755    1743.959      2423.821      9832.748    1792.335
     2520.405      9905.630    1740.463      2565.147      9914.795    1790.124
     2661.288      9985.979    1742.200      2706.291      9997.016    1792.256
     2800.598     10065.783    1745.157      2848.246     10079.681    1800.021
     2940.526     10145.535    1750.061      2988.242     10161.958    1804.690
     3080.163     10224.961    1753.392      3130.141     10245.032    1807.460
     3220.691     10304.585    1754.856      3271.388     10328.005    1806.843
     3367.499     10387.436    1760.172      3410.811     10410.106    1805.081
     3510.345     10468.739    1759.808      3547.323     10490.352    1799.394
     3649.214     10547.780    1755.416      3684.223     10570.369    1794.560
     3786.654     10625.666    1753.680      3821.094     10649.945    1793.581
     3925.064     10704.023    1757.144      3959.370     10730.163    1799.939
     4065.935     10784.320    1767.561      4093.079     10806.378    1805.561
     4201.312     10860.174    1776.037      4226.886     10881.995    1814.626
     4348.516     10946.375    1807.928      4375.007     10969.757    1847.596
     4495.974     11033.304    1840.005      4523.478     11058.092    1879.464
     4623.835     11102.675    1840.966      4661.142     11136.628    1893.642
     4768.675     11187.555    1865.710      4803.089     11218.939    1913.231
     4923.826     11281.897    1904.025      4949.384     11305.168    1936.907
     5064.576     11363.125    1918.018      5094.923     11390.712    1953.428
     5198.741     11438.386    1918.311      5231.098     11467.791    1955.941
     5334.867     11515.432    1916.715      5373.750     11550.807    1966.567
     5478.116     11598.953    1922.929      5512.392     11630.215    1972.913
     5619.014     11680.333    1927.106      5649.828     11708.555    1976.823
     5759.576     11761.393    1926.876      5787.127     11786.779    1976.632
      238.316      8395.323    1730.731       238.566      8394.886    1783.718
      378.219      8476.336    1733.401       379.431      8475.890    1792.622
      518.098      8557.329    1738.402       520.612      8556.912    1795.984
      657.688      8638.332    1738.865       661.435      8638.026    1786.261
      796.896      8719.319    1737.616       803.076      8719.095    1785.707
      936.043      8800.279    1737.314       944.514      8800.198    1782.080
     1075.223      8881.222    1737.632      1086.588      8881.312    1781.321
     1214.528      8962.154    1737.840      1227.549      8962.427    1777.034
     1353.596      9043.068    1737.269      1370.872      9043.619    1782.044
     1492.292      9123.942    1736.514      1510.904      9124.729    1781.409
     1634.072      9204.946    1743.798      1655.368      9206.071    1793.106
     1772.979      9285.795    1745.543      1794.102      9287.149    1791.613
     1910.133      9366.475    1744.441      1932.247      9368.166    1787.797
     2046.856      9447.021    1743.079      2074.415      9449.523    1789.142
     2186.374      9527.727    1746.263      2221.167      9531.493    1796.030
     2325.085      9608.257    1746.815      2365.872      9613.556    1797.082
     2461.452      9688.284    1742.374      2507.619      9695.521    1792.091
     2599.279      9768.260    1738.164      2649.953      9777.850    1788.709
     2744.571      9849.639    1743.636      2792.240      9860.487    1790.770
     2877.629      9927.981    1739.729      2930.432      9942.366    1794.720
     3019.196     10008.182    1745.249      3077.203     10026.992    1806.071
     3160.472     10088.208    1749.386      3213.852     10108.621    1803.324
     3306.130     10170.132    1755.385      3357.893     10193.156    1805.981
     3450.109     10251.778    1757.978      3494.499     10274.392    1802.500
     3593.645     10333.601    1759.311      3633.846     10356.703    1800.663
     3734.248     10413.968    1758.398      3767.877     10435.482    1793.755
     3873.134     10493.202    1759.513      3906.229     10516.475    1795.277
     4009.564     10570.447    1762.715      4032.947     10588.302    1790.122
     4146.224     10647.562    1770.390      4173.435     10669.819    1806.290
     4288.458     10729.348    1791.027      4322.113     10758.272    1839.311
     4436.229     10816.377    1824.399      4466.077     10842.837    1867.888
     4575.515     10896.122    1845.298      4603.523     10921.395    1885.182
     4708.313     10970.004    1854.248      4741.755     11000.386    1901.051
     4857.768     11059.074    1885.486      4885.441     11084.192    1922.622
     5006.277     11147.278    1913.000      5034.937     11173.183    1948.023
     5139.257     11221.471    1916.415      5174.947     11253.583    1955.871
     5272.743     11296.188    1915.362      5306.856     11326.780    1952.655
     5412.069     11376.169    1916.638      5445.646     11406.226    1956.778
     5555.256     11459.601    1921.566      5587.418     11488.390    1964.996
     5696.470     11541.259    1925.494      5727.702     11569.271    1971.581
     5837.194     11622.466    1925.287      5865.151     11647.645    1971.287
      317.764      8257.717    1728.972       318.016      8257.277    1771.820
      457.675      8338.710    1733.124       458.817      8338.282    1779.594
      597.356      8419.731    1733.672       599.950      8419.301    1783.878
      736.644      8500.739    1732.567       741.036      8500.388    1779.725
      876.192      8581.691    1735.715       882.991      8581.456    1781.051
     1015.464      8662.645    1736.106      1025.179      8662.565    1780.412
     1153.393      8743.578    1732.748      1166.032      8743.688    1774.449
     1291.944      8824.484    1732.531      1307.948      8824.817    1773.941
     1431.616      8905.402    1734.944      1450.813      8905.994    1777.887
     1571.072      8986.305    1736.981      1593.588      8987.207    1784.129
     1712.702      9067.300    1743.948      1737.708      9068.532    1794.556
     1854.061      9148.301    1750.881      1880.503      9149.864    1801.237
     1993.914      9229.218    1754.151      2024.460      9231.354    1805.700
     2129.497      9309.769    1750.203      2163.065      9312.542    1798.838
     2265.417      9390.204    1747.280      2300.899      9393.688    1792.053
     2400.377      9470.333    1742.559      2446.763      9475.802    1793.842
     2537.853      9550.511    1738.904      2584.674      9557.188    1783.792
     2677.866      9630.869    1736.256      2728.368      9639.590    1779.662
     2821.020      9711.738    1738.161      2866.903      9721.308    1776.382
     2951.496      9789.499    1731.750      3005.606      9803.106    1779.202
     3090.774      9868.729    1733.514      3150.438      9886.783    1788.263
     3233.252      9948.707    1737.897      3290.323      9969.345    1790.021
     3385.066     10032.687    1748.555      3436.152     10054.496    1794.727
     3529.226     10114.275    1751.181      3574.550     10136.772    1793.286
     3671.519     10195.278    1752.269      3714.533     10219.710    1793.340
     3816.549     10278.314    1757.620      3857.217     10304.331    1796.877
     3956.067     10358.153    1761.242      3990.578     10382.621    1795.254
     4092.332     10435.438    1766.694      4123.361     10459.490    1800.137
     4231.256     10514.553    1780.234      4257.277     10536.313    1811.756
     4385.262     10607.032    1818.651      4416.997     10634.978    1860.178
     4526.037     10688.393    1843.763      4557.808     10717.058    1887.951
     4653.977     10757.954    1850.317      4685.754     10786.937    1894.789
     4794.501     10838.884    1871.682      4822.016     10863.971    1909.211
     4948.249     10931.821    1907.557      4975.976     10956.958    1942.662
     5085.050     11009.353    1918.115      5118.932     11039.846    1956.375
     5213.633     11079.624    1915.994      5255.058     11116.626    1958.322
     5350.394     11157.323    1917.662      5394.753     11196.686    1962.641
     5490.144     11237.713    1918.336      5529.928     11272.832    1962.691
     5631.473     11319.493    1919.734      5666.100     11349.960    1963.358
     5774.434     11402.691    1925.047      5807.024     11431.341    1969.487
     5915.326     11484.053    1924.790      5944.587     11509.824    1969.241
      397.205      8120.120    1725.560       397.471      8119.656    1762.474
      537.149      8201.073    1732.295       538.201      8200.679    1767.585
      676.753      8282.109    1731.434       679.300      8281.689    1772.498
      816.252      8363.093    1732.987       821.190      8362.706    1777.802
      955.847      8444.050    1735.665       963.396      8443.799    1778.860
     1094.371      8525.016    1733.080      1105.631      8524.933    1777.217
     1232.356      8605.944    1731.210      1245.554      8606.061    1768.708
     1370.297      8686.839    1730.475      1388.249      8687.202    1770.670
     1509.288      8767.736    1732.367      1531.959      8768.399    1776.236
     1647.529      8848.590    1733.047      1672.137      8849.510    1777.236
     1788.756      8929.547    1739.371      1816.642      8930.813    1787.285
     1931.903      9010.620    1749.062      1961.892      9012.234    1797.035
     2073.508      9091.642    1754.491      2109.031      9093.887    1804.212
     2210.679      9172.358    1752.814      2246.859      9175.044    1796.821
     2345.518      9252.786    1748.249      2383.419      9256.118    1789.442
     2480.656      9333.046    1743.044      2527.092      9337.939    1788.338
     2610.571      9412.367    1731.991      2656.366      9418.219    1770.474
     2750.438      9492.585    1729.348      2812.254      9502.190    1773.646
     2891.839      9572.913    1728.813      2956.796      9585.140    1772.460
     3023.834      9650.931    1723.433      3093.119      9666.811    1772.595
     3165.236      9730.455    1725.423      3227.969      9747.994    1773.718
     3307.762      9810.104    1728.548      3369.629      9831.090    1777.883
     3461.263      9894.162    1738.612      3517.191      9916.927    1784.378
     3603.228      9974.333    1739.083      3658.797     10001.098    1786.024
     3745.353     10054.699    1740.785      3793.284     10081.629    1782.404
     3888.556     10136.018    1746.008      3932.178     10164.107    1784.170
     4033.409     10219.065    1756.376      4073.412     10248.015    1792.075
     4173.662     10299.238    1767.779      4211.963     10329.896    1805.815
     4317.236     10382.445    1789.047      4346.580     10407.987    1822.519
     4456.623     10462.405    1811.304      4508.719     10510.375    1874.440
     4603.767     10549.807    1844.579      4637.919     10581.921    1890.599
     4734.413     10621.578    1857.123      4769.586     10654.664    1905.636
     4884.127     10711.075    1893.128      4910.261     10735.268    1927.532
     5029.307     10796.112    1916.359      5058.066     10822.298    1950.260
     5152.341     10861.155    1911.126      5191.698     10896.532    1952.052
     5287.287     10937.188    1915.640      5330.603     10975.695    1956.571
     5425.924     11016.599    1918.188      5472.274     11057.400    1962.142
     5568.533     11099.530    1920.538      5610.758     11136.375    1965.120
     5709.811     11181.285    1920.847      5748.337     11214.667    1967.026
     5853.380     11265.001    1926.199      5888.562     11295.353    1971.178
     5994.384     11346.473    1925.922      6026.110     11373.815    1971.028
      476.662      7982.498    1723.516       476.946      7982.001    1756.982
      616.435      8063.503    1725.170       617.698      8063.035    1760.441
      756.301      8144.459    1730.583       759.060      8144.012    1767.745
      896.010      8225.436    1733.220       900.754      8225.072    1770.036
     1035.440      8306.414    1734.443      1043.955      8306.140    1776.876
     1173.165      8387.390    1729.966      1185.466      8387.306    1771.859
     1310.860      8468.310    1728.497      1324.896      8468.432    1763.306
     1449.132      8549.210    1729.366      1468.821      8549.589    1768.191
     1589.351      8630.146    1733.882      1616.289      8630.885    1779.616
     1725.970      8710.966    1732.540      1755.077      8711.969    1777.438
     1863.718      8791.783    1733.638      1896.394      8793.131    1780.645
     2005.281      8872.743    1740.487      2042.146      8874.529    1788.738
     2146.183      8953.676    1745.123      2184.937      8955.862    1789.276
     2287.606      9034.642    1748.436      2325.227      9037.117    1786.219
     2425.327      9115.335    1746.501      2474.624      9119.150    1792.030
     2564.758      9196.099    1744.185      2617.943      9201.008    1789.398
     2691.756      9275.394    1730.318      2740.075      9280.826    1765.450
     2823.704      9354.647    1722.123      2884.280      9363.004    1757.715
     2960.483      9434.102    1718.736      3048.744      9448.869    1765.409
     3102.359      9513.996    1718.886      3179.604      9529.896    1762.672
     3243.359      9593.383    1719.940      3309.580      9610.294    1761.436
     3388.271      9673.675    1723.461      3448.561      9692.654    1764.345
     3534.194      9754.583    1725.943      3604.198      9781.445    1777.135
     3675.496      9833.850    1725.829      3735.392      9861.562    1771.581
     3822.246      9915.959    1731.756      3878.559      9947.074    1776.028
     3963.155      9995.330    1736.423      4014.137     10028.424    1776.824
     4099.599     10071.492    1741.141      4152.628     10111.114    1784.293
     4250.128     10158.917    1761.706      4285.134     10188.472    1794.281
     4398.458     10246.485    1788.355      4421.309     10267.737    1813.958
     4527.411     10316.400    1799.166      4595.173     10383.398    1881.325
     4688.080     10417.982    1850.531      4721.563     10451.789    1894.856
     4825.847     10496.249    1875.094      4853.266     10523.497    1912.408
     4976.439     10586.447    1913.220      5001.056     10609.947    1944.474
     5104.796     10655.428    1916.059      5130.972     10679.553    1944.989
     5226.277     10718.948    1910.697      5264.393     10753.272    1947.692
     5364.309     10797.779    1917.847      5413.052     10840.965    1961.155
     5505.759     10879.677    1922.263      5548.623     10917.162    1961.024
     5646.338     10960.841    1921.843      5685.273     10994.478    1961.542
     5788.057     11043.002    1921.705      5826.566     11075.913    1966.527
     5933.491     11128.290    1928.821      5969.180     11158.545    1972.240
     6074.542     11209.814    1928.472      6106.762     11237.011    1972.040
      556.115      7844.880    1720.421       556.392      7844.397    1749.725
      695.897      7925.864    1723.271       696.956      7925.481    1748.775
      835.523      8006.860    1725.098       838.000      8006.469    1753.781
      975.171      8087.823    1728.208       980.354      8087.438    1763.410
     1114.336      8168.798    1729.460      1123.609      8168.511    1770.526
     1253.458      8249.755    1731.184      1266.334      8249.671    1770.021
     1392.207      8330.702    1731.910      1410.209      8330.851    1771.628
     1528.798      8411.599    1729.201      1553.393      8412.043    1772.845
     1666.269      8492.478    1729.365      1693.153      8493.157    1770.323
     1802.581      8573.297    1728.565      1833.499      8574.261    1770.223
     1940.689      8654.138    1730.764      1981.015      8655.623    1779.854
     2080.022      8734.999    1734.675      2119.904      8736.704    1777.642
     2221.653      8815.950    1739.528      2260.294      8817.856    1775.405
     2358.430      8896.630    1737.749      2402.325      8899.133    1774.083
     2505.028      8977.882    1741.876      2550.554      8980.903    1777.460
     2645.687      9058.789    1738.684      2690.432      9062.306    1771.263
     2776.341      9138.725    1726.687      2830.636      9143.921    1760.482
     2905.739      9218.013    1716.753      2992.741      9228.398    1759.636
     3041.380      9297.531    1712.823      3134.772      9311.252    1753.469
     3186.184      9378.068    1713.879      3264.464      9392.369    1751.167
     3321.057      9456.329    1712.418      3389.423      9472.034    1747.874
     3461.026      9535.058    1712.713      3524.714      9553.352    1749.118
     3608.642      9616.018    1715.292      3683.679      9642.664    1763.256
     3746.173      9693.224    1712.603      3814.226      9722.858    1759.034
     3889.372      9772.259    1715.805      3955.436      9807.549    1762.875
     4034.070      9852.323    1723.996      4086.774      9886.547    1762.275
     4168.242      9925.014    1727.547      4223.559      9967.909    1769.682
     4317.011     10009.315    1744.386      4361.447     10049.640    1784.330
     4460.156     10090.681    1761.540      4486.889     10118.034    1791.607
     4595.025     10164.664    1776.647      4682.713     10261.649    1887.295
     4720.854     10229.758    1783.434      4812.125     10332.479    1903.939
     4922.414     10378.551    1893.848      4951.321     10409.642    1932.767
     5064.403     10458.836    1920.790      5095.712     10490.151    1959.502
     5184.427     10518.625    1916.414      5223.323     10555.242    1957.860
     5307.717     10583.481    1914.666      5355.785     10626.980    1959.429
     5446.247     10662.737    1922.238      5493.442     10704.394    1962.667
     5582.993     10740.510    1922.587      5626.634     10778.374    1961.094
     5724.917     10822.852    1923.234      5765.814     10857.796    1964.133
     5870.707     10908.456    1927.295      5906.446     10938.562    1968.233
     6015.734     10993.327    1933.730      6049.646     11021.566    1973.451
     6156.869     11074.916    1933.401      6187.386     11100.135    1973.283
      635.570      7707.261    1717.538       635.863      7706.749    1747.028
      775.110      7788.311    1716.117       776.309      7787.890    1742.095
      914.772      7869.253    1720.691       917.373      7868.858    1747.469
     1054.025      7950.231    1721.832      1059.224      7949.860    1753.414
     1193.162      8031.185    1724.454      1202.925      8030.895    1763.187
     1333.215      8112.125    1729.837      1347.047      8112.039    1767.307
     1472.246      8193.084    1731.209      1491.128      8193.229    1768.849
     1608.157      8273.988    1727.673      1631.954      8274.381    1766.303
     1744.166      8354.850    1725.930      1772.696      8355.498    1765.749
     1881.766      8435.727    1727.267      1919.099      8436.750    1772.275
     2018.792      8516.564    1728.533      2061.613      8517.926    1773.950
     2159.161      8597.485    1733.092      2199.051      8598.940    1769.550
     2297.107      8678.294    1733.513      2340.312      8680.098    1766.969
     2438.624      8759.232    1733.809      2484.998      8761.453    1765.942
     2585.189      8840.453    1734.719      2637.231      8843.330    1769.307
     2727.041      8921.475    1729.802      2780.757      8924.940    1763.077
     2866.528      9002.350    1721.351      2929.321      9007.179    1754.853
     2994.986      9082.125    1709.781      3086.331      9090.847    1749.773
     3128.747      9161.724    1703.700      3224.815      9173.708    1745.347
     3271.667      9242.180    1705.638      3355.694      9255.598    1742.819
     3411.883      9322.056    1708.528      3491.719      9338.282    1744.924
     3539.688      9398.428    1704.749      3612.411      9417.146    1740.569
     3685.498      9478.698    1707.475      3767.525      9505.062    1752.495
     3827.236      9557.703    1707.758      3900.039      9586.602    1751.396
     3963.918      9633.359    1706.853      4036.479      9669.785    1753.779
     4105.158      9709.701    1712.405      4173.203      9753.333    1758.728
     4249.649      9788.172    1722.429      4315.322      9840.855    1771.049
     4396.868      9870.410    1736.135      4448.063      9920.521    1782.220
     4537.715      9948.296    1747.752      4569.890      9985.331    1785.234
     4673.553     10020.036    1758.855      4701.741     10057.981    1798.625
     4798.169     10082.213    1765.936      4898.216     10217.836    1905.931
     5008.012     10252.859    1892.620      5047.157     10299.785    1946.312
     5142.303     10321.793    1911.311      5183.157     10364.817    1961.898
     5266.188     10383.881    1914.558      5317.264     10433.057    1968.536
     5395.858     10454.104    1920.698      5444.827     10498.598    1965.609
     5532.490     10531.459    1927.154      5577.259     10570.700    1965.000
     5665.850     10606.246    1925.812      5708.802     10643.066    1963.532
     5811.356     10691.539    1931.290      5846.616     10721.219    1966.083
     5956.119     10776.124    1935.612      5988.254     10802.730    1971.703
     6100.281     10860.158    1940.469      6131.556     10885.686    1976.013