NOECHO

-- =============================================================================
-- 
-- Exported from Reek_base_sim
-- 
-- Exported by user asny from RMS11 at 2020-02-19 16:53:53
-- 
-- =============================================================================

MAPUNITS
'METRES  ' /

MAPAXES
456514.892 5939174.967
456514.892 5927115.549
467217.923 5927115.549 /

GRIDUNIT
'METRES  ' '        ' /

SPECGRID
  40  64  14   1  F  /

GDORIENT
INC INC INC DOWN RIGHT /

COORD
        0.000      8808.110    1734.066         0.165      8807.762    1766.003
      140.009      8889.150    1734.815       140.812      8888.847    1765.890
      279.887      8970.180    1736.687       281.635      8969.878    1770.776
      419.639      9051.186    1739.689       423.084      9050.890    1780.897
      559.315      9132.171    1743.478       564.593      9131.970    1785.161
      698.973      9213.142    1746.963       705.714      9213.084    1784.776
      838.224      9294.104    1748.166       847.835      9294.213    1789.429
      977.215      9375.038    1747.900       990.112      9375.384    1791.650
     1115.895      9455.934    1745.276      1131.038      9456.546    1785.596
     1254.330      9536.778    1741.589      1272.957      9537.779    1782.681
     1392.731      9617.570    1738.369      1415.770      9619.125    1782.193
     1531.063      9698.302    1737.363      1556.636      9700.399    1777.892
     1669.458      9778.971    1738.231      1698.999      9781.867    1776.398
     1807.078      9859.470    1738.107      1839.585      9863.240    1774.014
     1945.068      9939.881    1738.711      1980.438      9944.722    1773.506
     2083.253     10020.163    1739.769      2121.419     10026.331    1773.671
     2220.516     10100.072    1739.543      2261.030     10107.813    1773.419
     2358.913     10179.935    1740.109      2401.045     10189.441    1775.459
     2499.237     10260.033    1743.875      2544.526     10272.056    1783.189
     2641.420     10340.561    1751.935      2688.474     10355.181    1793.553
     2782.323     10420.645    1759.612      2832.271     10438.695    1803.899
     2923.128     10500.600    1765.286      2973.999     10521.787    1810.351
     3063.488     10580.270    1767.656      3114.037     10604.255    1812.719
     3203.990     10659.924    1767.138      3249.375     10684.165    1807.172
     3343.982     10739.230    1764.309      3382.617     10762.197    1799.132
     3484.058     10818.526    1761.897      3514.712     10838.601    1791.556
     3622.703     10896.794    1760.481      3652.622     10918.158    1792.327
     3761.651     10975.204    1762.320      3793.823     10999.965    1800.372
     3901.430     11054.321    1770.119      3936.247     11082.849    1814.805
     4042.187     11134.455    1786.437      4080.868     11167.764    1836.712
     4187.245     11218.705    1813.261      4227.850     11254.990    1863.056
     4334.524     11305.459    1841.172      4376.954     11344.324    1890.211
     4470.371     11381.958    1851.900      4516.727     11425.049    1905.550
     4612.260     11464.150    1869.643      4658.350     11507.324    1924.660
     4758.664     11550.667    1895.425      4802.115     11591.553    1948.201
     4901.193     11633.589    1913.243      4943.048     11673.135    1965.042
     5040.618     11713.587    1920.045      5078.627     11749.682    1969.173
     5180.370     11793.888    1921.420      5211.108     11823.250    1965.164
     5321.914     11875.902    1924.134      5348.620     11901.589    1966.333
     5463.280     11957.753    1928.641      5486.956     11980.707    1969.145
     5604.127     12039.110    1928.393      5624.884     12059.418    1969.018
       79.453      8670.468    1734.096        79.646      8670.129    1766.025
      219.488      8751.513    1734.850       220.300      8751.217    1765.954
      359.398      8832.542    1736.728       361.154      8832.249    1770.816
      499.209      8913.547    1739.747       502.689      8913.261    1780.898
      639.007      8994.532    1743.527       644.324      8994.345    1785.176
      778.812      9075.511    1746.984       785.586      9075.464    1784.816
      918.179      9156.481    1748.220       927.821      9156.600    1789.463
     1057.222      9237.425    1747.932      1070.121      9237.776    1791.639
     1195.992      9318.333    1745.323      1210.903      9318.935    1785.601
     1334.557      9399.199    1741.646      1352.844      9400.167    1782.684
     1472.978      9480.012    1738.446      1495.559      9481.500    1782.186
     1611.640      9560.791    1737.443      1636.863      9562.805    1777.864
     1750.735      9641.558    1738.272      1779.997      9644.341    1776.419
     1889.208      9722.204    1738.199      1920.965      9725.769    1773.942
     2027.974      9802.799    1738.853      2062.014      9807.301    1773.506
     2166.847      9883.301    1739.862      2203.422      9889.010    1773.637
     2305.021      9963.541    1739.664      2344.077      9970.750    1773.415
     2444.323     10043.812    1740.299      2485.083     10052.709    1775.580
     2585.576     10124.413    1744.354      2628.900     10135.557    1783.496
     2727.674     10205.235    1752.398      2772.662     10218.806    1793.818
     2868.364     10285.606    1760.043      2917.542     10302.902    1804.208
     3009.219     10365.953    1765.560      3059.333     10386.325    1810.556
     3149.737     10446.088    1767.814      3198.618     10468.796    1812.694
     3290.420     10526.234    1767.135      3333.179     10548.670    1807.029
     3430.980     10606.284    1764.254      3466.903     10627.334    1798.905
     3571.443     10686.270    1761.843      3599.843     10704.662    1791.545
     3709.875     10764.849    1760.561      3737.843     10784.654    1792.716
     3847.612     10842.752    1762.593      3877.856     10865.894    1800.876
     3986.187     10921.201    1770.677      4018.601     10947.652    1815.352
     4126.277     11000.976    1787.266      4161.116     11030.895    1836.915
     4270.394     11084.532    1814.132      4305.438     11115.780    1862.659
     4414.859     11168.790    1841.272      4451.537     11202.306    1889.304
     4550.018     11244.683    1851.922      4591.133     11282.779    1904.901
     4691.671     11326.660    1869.637      4733.468     11365.639    1924.052
     4837.653     11412.761    1895.334      4877.731     11450.250    1947.399
     4980.010     11495.510    1913.168      5020.493     11533.486    1964.726
     5119.853     11575.906    1920.040      5157.051     11610.939    1969.221
     5260.370     11656.938    1921.440      5290.370     11685.334    1965.372
     5402.840     11739.827    1924.213      5428.504     11764.270    1966.498
     5544.538     11822.000    1928.664      5567.262     11843.800    1969.276
     5684.767     11902.768    1928.413      5705.194     11922.535    1969.145
      158.898      8532.864    1732.471       159.128      8532.463    1765.583
      298.884      8613.911    1732.838       299.743      8613.596    1762.854
      438.721      8694.935    1734.487       440.754      8694.604    1770.326
      578.398      8775.935    1736.593       582.547      8775.613    1780.813
      718.227      8856.905    1740.731       723.994      8856.723    1781.663
      858.214      8937.876    1745.167       865.174      8937.847    1780.425
      997.009      9018.837    1744.415      1007.709      9018.988    1785.702
     1136.442      9099.787    1746.088      1150.918      9100.188    1790.481
     1274.852      9180.683    1743.247      1290.243      9181.293    1781.235
     1413.588      9261.560    1740.681      1433.450      9262.572    1781.317
     1551.424      9342.346    1737.082      1576.909      9343.943    1781.698
     1689.916      9423.120    1735.900      1716.814      9425.141    1775.091
     1829.666      9503.953    1737.030      1858.512      9506.515    1771.817
     1966.786      9584.484    1735.115      1996.776      9587.614    1766.955
     2107.502      9665.322    1737.533      2144.039      9669.802    1773.185
     2246.164      9745.845    1737.998      2284.808      9751.432    1772.493
     2383.904      9826.074    1737.004      2426.088      9833.295    1772.042
     2522.708      9906.291    1736.644      2562.668      9914.399    1769.573
     2662.927      9986.643    1739.201      2708.526      9997.586    1778.107
     2805.583     10067.553    1746.986      2849.975     10080.102    1785.307
     2946.719     10148.035    1754.192      2998.824     10165.302    1797.614
     3089.292     10229.006    1760.387      3139.239     10248.264    1802.383
     3230.202     10309.357    1762.750      3283.295     10332.934    1809.138
     3370.697     10389.450    1762.356      3413.038     10410.867    1800.797
     3510.911     10469.316    1759.923      3547.984     10490.439    1795.007
     3651.454     10549.336    1758.362      3677.136     10565.637    1784.693
     3787.466     10626.237    1754.859      3816.420     10646.467    1787.488
     3924.740     10703.656    1757.242      3955.633     10727.103    1795.458
     4063.939     10782.475    1767.478      4095.239     10807.909    1809.913
     4201.628     10860.110    1781.557      4238.021     10891.312    1833.681
     4347.875     10945.439    1812.254      4380.840     10974.805    1859.456
     4497.726     11034.582    1848.597      4530.305     11064.295    1893.228
     4626.649     11104.793    1851.886      4666.139     11141.231    1904.330
     4766.268     11184.895    1867.239      4806.156     11221.832    1919.123
     4919.892     11278.042    1901.502      4960.809     11315.920    1952.455
     5061.973     11360.514    1917.748      5102.974     11398.462    1966.652
     5197.404     11436.836    1919.205      5235.064     11471.732    1965.661
     5336.072     11516.147    1918.073      5366.605     11544.515    1959.612
     5479.192     11599.594    1921.022      5505.869     11624.483    1961.624
     5621.476     11682.275    1925.835      5645.158     11704.495    1964.346
     5761.882     11763.196    1925.587      5783.270     11783.412    1964.204
      238.361      8395.230    1732.538       238.634      8394.755    1767.076
      378.337      8476.290    1732.367       379.321      8475.922    1763.914
      518.147      8557.313    1733.634       520.517      8556.927    1771.824
      657.915      8638.301    1736.473       662.199      8637.975    1777.804
      797.408      8719.283    1737.484       803.897      8719.089    1779.036
      936.552      8800.249    1738.157       944.795      8800.225    1775.486
     1075.344      8881.191    1739.099      1087.211      8881.362    1779.617
     1214.552      8962.123    1741.004      1228.219      8962.495    1778.230
     1354.025      9043.052    1741.832      1370.711      9043.687    1778.366
     1494.190      9124.003    1742.718      1516.589      9125.085    1783.198
     1635.309      9205.012    1744.464      1662.116      9206.585    1785.498
     1773.529      9285.837    1741.900      1802.516      9287.861    1779.296
     1909.252      9366.407    1737.310      1937.430      9368.721    1768.213
     2046.361      9446.981    1735.230      2077.594      9449.982    1766.177
     2188.378      9527.989    1738.641      2225.021      9532.115    1772.563
     2327.579      9608.658    1739.189      2363.470      9613.422    1769.728
     2465.857      9689.095    1737.970      2510.842      9696.172    1773.078
     2604.677      9769.462    1736.935      2652.073      9778.323    1772.913
     2747.093      9850.449    1740.877      2794.038      9860.868    1776.765
     2885.389      9930.418    1744.013      2931.777      9942.608    1779.219
     3022.411     10009.671    1746.322      3074.474     10025.820    1785.165
     3164.741     10090.337    1750.883      3214.677     10108.512    1789.238
     3313.614     10173.819    1759.187      3363.501     10194.945    1799.633
     3457.705     10255.898    1762.768      3501.659     10277.342    1800.255
     3596.448     10335.415    1761.225      3635.551     10357.153    1796.267
     3735.832     10415.070    1760.917      3771.616     10437.461    1795.555
     3870.675     10491.459    1758.358      3906.466     10516.317    1796.247
     4008.038     10569.127    1762.389      4045.325     10597.447    1805.818
     4146.016     10647.107    1772.846      4175.922     10671.573    1811.478
     4286.371     10727.151    1792.314      4321.851     10757.843    1841.615
     4436.959     10816.651    1830.344      4468.563     10845.004    1875.301
     4573.160     10893.573    1848.359      4602.452     10920.389    1889.026
     4707.559     10968.825    1859.880      4743.285     11001.789    1907.493
     4856.973     11058.006    1887.844      4892.250     11090.549    1932.458
     5005.213     11146.110    1912.639      5041.769     11179.712    1954.862
     5136.333     11218.502    1914.398      5176.510     11255.296    1958.130
     5273.231     11296.233    1917.356      5310.749     11330.511    1959.321
     5415.685     11379.042    1921.250      5442.903     11403.897    1954.738
     5557.230     11461.016    1922.349      5581.256     11482.986    1955.218
     5699.310     11543.475    1926.136      5722.603     11564.850    1959.947
     5840.061     11624.713    1925.931      5860.912     11643.955    1959.708
      317.837      8257.575    1733.022       318.096      8257.123    1762.173
      457.962      8338.602    1736.120       459.041      8338.195    1767.780
      597.697      8419.671    1733.840       600.397      8419.231    1773.739
      737.151      8500.688    1733.065       741.908      8500.332    1774.668
      876.327      8581.668    1732.901       883.596      8581.458    1774.451
     1015.583      8662.619    1735.035      1025.192      8662.595    1773.214
     1154.909      8743.564    1738.046      1167.578      8743.744    1775.711
     1292.380      8824.456    1735.736      1307.406      8824.848    1771.497
     1431.752      8905.371    1737.494      1453.940      8906.170    1780.295
     1571.455      8986.292    1738.711      1595.625      8987.383    1777.064
     1714.251      9067.373    1743.334      1739.196      9068.729    1776.562
     1857.074      9148.503    1746.583      1882.202      9150.117    1775.096
     1993.599      9229.217    1742.815      2018.861      9231.114    1767.886
     2128.752      9309.721    1738.796      2157.706      9312.254    1765.390
     2262.894      9389.968    1735.080      2296.787      9393.438    1764.645
     2402.527      9470.636    1735.936      2440.905      9475.264    1766.881
     2543.304      9551.391    1736.092      2585.213      9557.381    1766.253
     2683.502      9632.007    1735.454      2735.600      9640.872    1770.734
     2825.812      9712.964    1738.309      2882.238      9724.406    1775.818
     2958.902      9791.734    1736.742      3012.880      9804.780    1772.078
     3095.607      9870.745    1737.135      3153.896      9887.517    1775.521
     3236.985      9950.738    1739.157      3290.723      9969.079    1776.477
     3386.865     10034.006    1746.772      3438.678     10054.854    1785.338
     3538.054     10118.927    1756.179      3586.681     10141.799    1794.690
     3679.479     10199.969    1759.246      3727.853     10226.288    1799.490
     3819.540     10280.283    1762.197      3866.171     10309.229    1803.826
     3953.111     10356.048    1760.994      3995.422     10385.529    1802.069
     4088.825     10432.548    1764.916      4124.830     10460.271    1803.540
     4225.772     10509.608    1775.936      4256.864     10535.651    1813.340
     4378.142     10600.342    1812.811      4421.704     10639.069    1869.339
     4523.865     10686.066    1845.576      4561.275     10720.333    1897.273
     4649.970     10753.733    1850.903      4687.314     10788.381    1902.408
     4791.282     10835.430    1873.163      4826.355     10867.969    1918.957
     4948.351     10931.704    1909.564      4980.338     10961.204    1947.844
     5086.468     11010.421    1919.290      5120.158     11041.259    1955.056
     5212.457     11078.170    1914.545      5248.405     11110.835    1950.042
     5349.161     11155.785    1916.716      5382.116     11185.548    1950.094
     5492.928     11239.783    1921.803      5519.895     11264.031    1951.969
     5634.375     11321.670    1922.825      5660.272     11344.911    1955.041
     5777.842     11405.359    1927.592      5802.033     11427.079    1959.385
     5918.921     11486.895    1927.337      5940.477     11506.311    1959.184
      397.272      8119.988    1728.029       397.529      8119.540    1753.995
      537.411      8200.976    1733.288       538.603      8200.530    1764.931
      677.289      8282.020    1733.589       680.048      8281.575    1770.899
      816.790      8363.044    1732.547       821.977      8362.662    1773.609
      955.314      8444.051    1729.011       962.706      8443.842    1766.492
     1093.691      8524.994    1728.940      1103.476      8524.969    1762.757
     1232.874      8605.918    1732.481      1245.945      8606.093    1766.225
     1370.889      8686.813    1732.621      1388.482      8687.246    1769.421
     1508.618      8767.672    1732.281      1533.383      8768.504    1775.074
     1648.293      8848.579    1734.762      1675.083      8849.696    1772.816
     1788.972      8929.529    1737.390      1813.458      8930.748    1766.367
     1932.631      9010.656    1742.279      1954.604      9011.938    1764.638
     2074.494      9091.720    1744.631      2099.964      9093.450    1767.786
     2209.397      9172.269    1740.935      2238.764      9174.586    1765.899
     2345.498      9252.789    1738.831      2381.923      9256.141    1768.684
     2482.852      9333.301    1737.134      2520.409      9337.360    1765.863
     2623.671      9414.114    1735.891      2670.105      9420.058    1766.590
     2766.012      9495.134    1735.579      2821.915      9503.661    1768.941
     2898.942      9574.487    1731.799      2966.959      9586.889    1770.875
     3028.158      9652.378    1727.198      3095.372      9667.114    1765.535
     3169.485      9732.282    1728.617      3235.540      9749.730    1767.339
     3311.160      9812.079    1729.042      3370.322      9830.870    1766.372
     3456.658      9893.130    1732.218      3520.667      9917.479    1776.037
     3611.711      9978.875    1743.902      3665.165     10003.074    1783.141
     3753.684     10059.719    1749.140      3803.457     10086.282    1787.230
     3896.662     10141.367    1756.174      3948.511     10173.522    1798.168
     4034.165     10219.604    1760.320      4080.322     10252.275    1800.634
     4174.491     10299.673    1770.703      4213.481     10330.658    1809.032
     4312.721     10378.083    1785.759      4352.477     10412.864    1830.874
     4450.370     10456.024    1806.833      4510.121     10511.823    1879.266
     4600.058     10545.796    1844.120      4642.210     10586.129    1900.542
     4730.905     10617.613    1857.357      4769.279     10654.368    1909.353
     4885.442     10711.921    1898.008      4919.859     10744.371    1941.391
     5033.463     10799.713    1921.566      5064.734     10828.694    1956.606
     5158.336     10866.176    1915.999      5195.717     10900.346    1952.520
     5286.359     10935.860    1913.093      5327.066     10972.647    1949.887
     5428.162     11018.123    1919.327      5466.322     11052.269    1954.990
     5571.267     11101.526    1923.512      5604.164     11130.715    1957.886
     5712.799     11183.507    1924.548      5743.187     11210.305    1960.068
     5857.231     11268.017    1929.678      5883.941     11291.498    1962.432
     5998.600     11349.812    1929.404      6022.356     11370.702    1962.342
      476.684      7982.445    1720.619       476.912      7982.047    1741.588
      616.637      8063.433    1724.513       617.780      8063.011    1751.630
      756.619      8144.410    1729.048       759.070      8144.022    1758.898
      896.081      8225.426    1728.693       900.486      8225.108    1760.029
     1034.653      8306.424    1726.661      1041.160      8306.243    1755.895
     1173.496      8387.366    1728.744      1184.082      8387.336    1760.755
     1312.505      8468.297    1731.605      1326.069      8468.467    1762.400
     1448.776      8549.161    1728.787      1468.104      8549.604    1765.193
     1586.249      8630.013    1729.104      1610.385      8630.761    1767.582
     1727.075      8710.962    1733.959      1756.722      8712.089    1772.847
     1862.421      8791.674    1731.066      1893.838      8793.087    1765.268
     2006.398      8872.762    1737.096      2040.095      8874.526    1768.967
     2152.511      8954.029    1743.890      2184.734      8955.983    1771.504
     2293.851      9035.062    1745.503      2324.803      9037.236    1770.158
     2432.232      9115.879    1744.161      2469.615      9118.928    1772.594
     2573.444      9196.922    1743.724      2615.977      9200.978    1773.954
     2707.217      9277.166    1735.530      2761.165      9283.251    1768.515
     2846.350      9357.855    1731.993      2903.393      9365.549    1762.178
     2973.363      9436.478    1724.842      3045.506      9448.128    1760.813
     3101.661      9514.328    1719.355      3186.078      9530.867    1762.310
     3245.291      9594.554    1720.657      3322.130      9612.966    1761.518
     3387.896      9674.430    1720.450      3463.237      9696.488    1764.086
     3530.600      9754.182    1721.235      3596.312      9777.642    1762.785
     3673.134      9833.724    1724.541      3740.156      9862.792    1769.614
     3824.586      9917.835    1736.885      3890.905      9952.552    1783.220
     3970.108     10000.123    1746.221      4026.716     10035.408    1787.828
     4108.603     10078.301    1752.036      4158.981     10115.004    1791.776
     4252.677     10160.806    1766.244      4301.860     10201.975    1811.091
     4397.486     10245.073    1789.000      4431.754     10277.134    1826.908
     4522.879     10311.062    1796.850      4599.415     10387.786    1889.429
     4684.875     10414.154    1849.984      4724.863     10455.151    1901.871
     4826.169     10496.026    1877.965      4864.921     10535.184    1929.109
     4978.212     10587.884    1915.309      5011.617     10620.357    1955.965
     5109.134     10659.095    1919.704      5140.127     10688.164    1952.498
     5235.517     10726.810    1916.740      5272.029     10760.233    1949.928
     5366.998     10799.655    1916.893      5406.030     10834.777    1949.822
     5507.202     10880.490    1921.360      5545.265     10914.274    1955.162
     5648.324     10962.155    1923.602      5681.467     10991.210    1956.989
     5792.186     11046.190    1926.964      5825.031     11074.687    1964.171
     5937.645     11131.545    1932.608      5966.721     11156.591    1966.748
     6079.283     11213.568    1932.306      6104.993     11235.646    1966.662
      556.120      7844.857    1715.706       556.390      7844.386    1739.047
      695.886      7925.875    1717.163       697.065      7925.452    1742.052
      835.526      8006.863    1719.746       838.246      8006.445    1748.903
      974.490      8087.867    1719.224       979.647      8087.506    1751.806
     1114.040      8168.795    1724.326      1121.606      8168.590    1754.579
     1253.838      8249.735    1729.590      1265.363      8249.700    1760.576
     1391.685      8330.670    1729.944      1407.545      8330.852    1762.273
     1529.028      8411.567    1729.871      1550.261      8412.013    1766.856
     1665.695      8492.417    1729.247      1693.240      8493.191    1770.801
     1802.555      8573.242    1729.214      1837.280      8574.422    1772.320
     1940.398      8654.067    1730.001      1978.742      8655.593    1769.670
     2080.303      8734.951    1732.465      2118.486      8736.707    1767.276
     2222.319      8815.927    1736.224      2259.326      8817.891    1767.165
     2368.500      8897.171    1741.249      2403.786      8899.332    1768.091
     2518.485      8978.786    1746.048      2563.781      8981.992    1777.626
     2662.512      9060.133    1744.275      2711.916      9064.201    1775.889
     2789.482      9139.973    1730.914      2847.746      9145.618    1764.040
     2927.191      9220.603    1725.637      3001.226      9229.244    1760.646
     3054.913      9299.666    1718.771      3154.010      9313.672    1762.662
     3184.853      9378.206    1713.824      3276.879      9394.113    1757.365
     3326.609      9458.189    1714.224      3426.287      9479.565    1763.249
     3468.181      9537.895    1713.606      3553.014      9560.489    1758.946
     3600.896      9614.364    1709.193      3693.592      9645.023    1763.196
     3740.550      9691.891    1711.679      3822.546      9725.563    1762.030
     3887.301      9772.032    1720.334      3963.585      9810.910    1769.262
     4038.488      9855.646    1732.355      4097.581      9892.658    1772.785
     4176.512      9931.664    1737.663      4235.518      9976.306    1781.430
     4320.067     10011.869    1749.776      4375.280     10061.435    1798.270
     4457.231     10086.988    1760.539      4501.627     10132.548    1810.109
     4589.874     10157.884    1773.619      4687.110     10266.370    1897.918
     4714.820     10221.707    1780.282      4823.261     10344.782    1919.807
     4926.965     10383.070    1899.726      4968.218     10428.078    1953.862
     5065.722     10459.935    1920.615      5098.552     10493.356    1960.167
     5188.248     10521.799    1917.406      5222.903     10554.989    1952.868
     5312.605     10587.357    1914.492      5349.332     10621.122    1946.244
     5448.528     10664.251    1919.265      5480.038     10692.467    1944.762
     5588.759     10745.094    1924.513      5623.241     10775.408    1954.590
     5729.174     10826.129    1926.996      5765.236     10857.321    1962.971
     5873.462     10910.486    1931.150      5906.733     10938.858    1968.337
     6019.555     10996.294    1936.753      6049.524     11021.572    1971.074
     6161.384     11078.457    1936.448      6187.678     11100.488    1971.001
      635.582      7707.226    1713.809       635.885      7706.695    1739.276
      775.303      7788.252    1714.253       776.640      7787.790    1739.927
      915.075      7869.212    1718.239       918.037      7868.775    1746.497
     1054.088      7950.222    1718.152      1059.015      7949.891    1746.020
     1192.262      8031.196    1718.141      1200.615      8030.978    1748.419
     1330.995      8112.116    1722.645      1342.346      8112.078    1750.435
     1470.752      8193.046    1728.757      1488.582      8193.227    1762.065
     1609.768      8273.981    1732.216      1631.915      8274.396    1768.440
     1747.759      8354.893    1733.503      1777.091      8355.618    1775.431
     1883.019      8435.711    1730.754      1917.326      8436.720    1771.245
     2018.953      8516.508    1729.303      2062.454      8517.985    1772.888
     2156.409      8597.313    1729.678      2199.143      8598.978    1768.021
     2297.568      8678.235    1732.593      2341.679      8680.212    1769.274
     2440.768      8759.255    1734.139      2488.277      8761.712    1769.162
     2593.338      8840.866    1737.773      2641.857      8843.767    1769.315
     2738.570      8922.199    1733.330      2796.604      8926.201    1767.055
     2877.075      9003.128    1724.802      2939.244      9008.062    1756.811
     3008.561      9083.403    1715.325      3084.800      9090.570    1748.418
     3135.310      9162.636    1707.395      3225.817      9173.438    1748.250
     3271.326      9242.371    1706.452      3367.166      9256.787    1750.688
     3410.460      9322.200    1707.060      3504.145      9339.923    1750.512
     3541.319      9399.642    1702.922      3629.490      9420.660    1746.524
     3678.802      9477.481    1703.026      3767.378      9504.127    1750.430
     3818.668      9555.058    1706.785      3915.692      9591.947    1761.659
     3959.799      9631.881    1711.620      4050.699      9676.168    1766.304
     4108.404      9712.168    1720.249      4177.434      9755.301    1765.893
     4249.900      9788.541    1726.721      4317.691      9841.832    1776.386
     4397.577      9870.763    1739.964      4451.837      9923.386    1788.044
     4534.811      9944.023    1746.872      4574.323      9989.742    1793.345
     4668.192     10011.311    1753.791      4702.866     10058.529    1804.875
     4793.471     10074.309    1762.422      4905.266     10226.746    1918.020
     5007.048     10251.205    1890.922      5046.241     10298.892    1944.472
     5144.258     10323.587    1910.638      5180.669     10362.661    1955.130
     5271.713     10388.804    1914.658      5308.005     10424.360    1951.327
     5401.281     10458.584    1918.295      5432.227     10487.133    1944.380
     5535.972     10534.097    1923.544      5564.580     10559.509    1946.331
     5668.278     10607.921    1924.043      5704.688     10639.489    1956.017
     5812.638     10692.321    1931.818      5848.243     10722.583    1967.469
     5956.723     10776.395    1936.509      5990.251     10804.412    1973.618
     6102.778     10862.033    1941.275      6133.146     10887.055    1975.526