NOECHO

-- =============================================================================
-- 
-- Exported from Reek_base_sim
-- 
-- Exported by user akia from RMS11 at 2019-11-29 14:40:56
-- 
-- =============================================================================

MAPUNITS
'METRES  ' /

MAPAXES
456514.914 5939173.181
456514.914 5927115.548
467218.406 5927115.548 /

GRIDUNIT
'METRES  ' '        ' /

SPECGRID
  40  64  14   1  F  /

GDORIENT
INC INC INC DOWN RIGHT /

COORD
        0.000      8808.075    1732.968         0.116      8807.808    1784.364
      140.030      8889.115    1734.160       140.837      8888.848    1787.717
      279.944      8970.152    1737.187       281.689      8969.880    1791.153
      419.784      9051.167    1741.615       422.708      9050.927    1793.310
      559.476      9132.169    1744.506       563.898      9131.991    1793.209
      698.904      9213.160    1745.256       705.227      9213.070    1791.671
      838.389      9294.132    1746.599       846.684      9294.165    1789.339
      977.777      9375.090    1747.682       988.444      9375.286    1787.915
     1116.364      9456.005    1746.042      1130.406      9456.442    1787.692
     1254.870      9536.875    1743.963      1271.697      9537.611    1786.741
     1393.207      9617.690    1741.280      1411.610      9618.733    1783.374
     1531.684      9698.457    1739.496      1552.575      9699.931    1781.915
     1669.804      9779.128    1737.929      1694.186      9781.223    1780.788
     1807.958      9859.711    1738.264      1836.489      9862.662    1781.117
     1947.008      9940.287    1741.192      1978.496      9944.195    1781.889
     2086.415     10020.804    1745.058      2120.060     10025.818    1783.498
     2223.576     10100.799    1746.408      2256.238     10106.647    1780.814
     2361.147     10180.574    1747.683      2394.768     10187.792    1781.955
     2501.808     10260.801    1752.359      2538.878     10270.296    1789.546
     2642.839     10341.029    1758.326      2683.061     10353.249    1798.154
     2782.979     10420.853    1762.861      2825.804     10436.166    1805.150
     2922.797     10500.378    1765.355      2967.582     10519.016    1808.319
     3062.724     10579.787    1765.889      3108.979     10601.872    1809.861
     3203.469     10659.523    1765.562      3249.212     10684.197    1810.144
     3344.722     10739.606    1765.140      3386.845     10764.888    1808.473
     3482.843     10817.754    1763.057      3523.249     10844.385    1806.816
     3621.658     10896.198    1764.210      3660.664     10924.098    1808.394
     3762.486     10976.122    1769.523      3800.359     11005.192    1815.382
     3903.780     11056.621    1777.655      3938.500     11084.883    1823.473
     4044.133     11136.587    1790.141      4078.448     11165.845    1837.361
     4189.550     11221.230    1815.407      4225.395     11252.856    1862.927
     4334.925     11306.254    1840.180      4374.143     11341.661    1890.104
     4471.239     11383.263    1850.513      4513.462     11421.902    1905.453
     4615.113     11467.275    1871.199      4655.782     11504.747    1926.452
     4762.304     11554.441    1898.600      4798.648     11588.048    1947.737
     4904.390     11636.928    1914.927      4938.744     11668.798    1958.581
     5042.270     11715.515    1919.846      5074.470     11745.505    1959.713
     5181.935     11795.751    1922.433      5208.350     11820.479    1957.327
     5323.357     11877.632    1925.952      5346.473     11899.406    1959.984
     5464.611     11959.358    1929.852      5485.087     11978.796    1963.655
     5605.371     12040.614    1929.634      5623.125     12057.633    1963.478
       79.445      8670.443    1732.996        79.603      8670.166    1784.414
      219.492      8751.483    1734.201       220.360      8751.208    1787.759
      359.434      8832.518    1737.229       361.266      8832.244    1791.184
      499.328      8913.529    1741.641       502.362      8913.294    1793.325
      639.103      8994.531    1744.544       643.622      8994.363    1793.225
      778.664      9075.524    1745.309       785.017      9075.449    1791.689
      918.363      9156.505    1746.666       926.570      9156.550    1789.369
     1057.878      9237.472    1747.708      1068.421      9237.675    1787.939
     1196.521      9318.400    1746.075      1210.400      9318.834    1787.698
     1335.038      9399.284    1744.005      1351.621      9399.999    1786.738
     1473.411      9480.118    1741.351      1491.388      9481.112    1783.385
     1612.093      9560.919    1739.555      1632.415      9562.312    1781.922
     1750.715      9641.662    1737.991      1774.394      9643.627    1780.785
     1889.603      9722.361    1738.377      1917.076      9725.100    1781.121
     2029.535      9803.105    1741.351      2059.485      9806.686    1781.890
     2169.547      9883.806    1745.190      2201.353      9888.373    1783.494
     2307.262      9964.039    1746.546      2337.929      9969.340    1780.795
     2445.702     10044.184    1747.975      2477.051     10050.697    1782.107
     2587.131     10124.832    1752.711      2622.320     10133.579    1789.769
     2728.456     10205.438    1758.686      2767.933     10217.114    1798.410
     2868.868     10285.706    1763.143      2911.724     10300.677    1805.348
     3009.039     10365.763    1765.547      3053.320     10383.835    1808.451
     3149.136     10445.668    1765.975      3193.934     10466.720    1809.942
     3290.120     10525.955    1765.718      3333.405     10549.005    1810.210
     3431.468     10606.522    1765.116      3470.696     10629.821    1808.497
     3569.875     10685.296    1763.107      3607.239     10709.712    1806.938
     3708.341     10763.923    1764.471      3744.730     10789.776    1808.712
     3848.196     10843.479    1769.931      3883.743     10870.619    1815.781
     3988.145     10923.182    1778.024      4020.551     10949.447    1823.818
     4127.599     11002.583    1790.801      4159.033     11029.281    1837.735
     4271.738     11086.213    1816.023      4303.605     11114.225    1862.743
     4415.011     11169.391    1840.231      4449.800     11200.675    1889.363
     4550.946     11246.081    1850.547      4588.877     11280.632    1905.089
     4694.496     11329.781    1871.206      4730.737     11362.991    1925.745
     4840.640     11415.945    1898.370      4873.003     11445.676    1946.897
     4982.285     11498.007    1914.780      5014.222     11527.409    1958.376
     5120.837     11577.222    1919.838      5151.789     11605.810    1959.805
     5261.316     11658.213    1922.454      5287.241     11682.261    1957.517
     5403.465     11740.760    1926.003      5426.278     11762.040    1960.120
     5544.894     11822.646    1929.880      5565.479     11841.984    1963.757
     5685.362     11903.627    1929.660      5703.528     11920.849    1963.580
      158.890      8532.842    1731.371       159.083      8532.503    1780.734
      298.875      8613.884    1731.547       299.885      8613.557    1784.154
      438.742      8694.911    1734.244       440.872      8694.598    1787.826
      578.631      8775.909    1739.399       582.127      8775.652    1790.606
      718.310      8856.905    1741.664       723.361      8856.739    1789.109
      857.768      8937.892    1742.221       864.710      8937.832    1786.995
      997.163      9018.865    1742.566      1005.959      9018.932    1783.700
     1137.033      9099.835    1745.657      1147.717      9100.050    1782.991
     1275.409      9180.755    1743.980      1290.523      9181.222    1785.792
     1413.804      9261.639    1742.477      1432.103      9262.396    1785.678
     1551.836      9342.462    1739.754      1571.578      9343.493    1781.695
     1690.706      9423.284    1738.523      1713.114      9424.714    1781.147
     1829.420      9504.049    1736.790      1854.458      9505.972    1778.829
     1968.502      9584.787    1737.016      1998.006      9587.496    1780.413
     2107.870      9665.486    1738.867      2137.328      9668.727    1776.958
     2248.088      9746.218    1742.423      2281.124      9750.593    1780.755
     2384.957      9826.356    1742.373      2415.189      9831.194    1775.261
     2522.650      9906.366    1742.678      2553.371      9912.302    1775.465
     2664.946      9987.143    1747.529      2701.543      9995.654    1784.332
     2806.876     10067.864    1752.874      2847.871     10079.288    1791.513
     2947.802     10148.274    1756.874      2993.338     10163.388    1798.534
     3089.124     10228.767    1759.975      3134.580     10246.553    1801.765
     3229.033     10308.625    1760.402      3275.425     10329.709    1804.693
     3369.720     10388.760    1760.292      3413.967     10411.725    1805.143
     3510.835     10469.166    1760.064      3549.329     10491.598    1802.142
     3647.847     10547.036    1756.685      3685.976     10571.613    1801.036
     3786.042     10625.390    1758.122      3822.297     10650.899    1801.583
     3925.562     10704.597    1764.049      3962.672     10732.746    1810.902
     4066.598     10785.093    1775.124      4097.902     10810.352    1818.369
     4202.308     10861.321    1783.949      4234.602     10888.644    1831.557
     4349.548     10947.549    1814.761      4379.502     10973.762    1859.123
     4497.979     11035.317    1847.954      4530.063     11064.002    1894.311
     4627.462     11106.242    1849.793      4663.942     11139.228    1903.159
     4771.469     11190.326    1871.309      4806.735     11222.334    1924.359
     4922.583     11280.936    1905.237      4954.559     11309.959    1951.815
     5063.336     11362.157    1919.343      5093.837     11389.834    1959.550
     5197.590     11437.484    1918.282      5230.066     11466.983    1958.590
     5336.645     11517.167    1918.433      5362.378     11540.592    1951.414
     5479.581     11600.380    1922.060      5504.147     11622.830    1956.320
     5621.655     11682.814    1926.339      5644.045     11703.391    1959.866
     5762.272     11763.910    1926.103      5782.243     11782.407    1959.691
      238.348      8395.216    1732.483       238.564      8394.836    1777.295
      378.303      8476.273    1730.919       379.411      8475.899    1780.434
      518.061      8557.307    1731.702       520.456      8556.949    1783.324
      657.594      8638.315    1732.881       661.461      8638.036    1781.279
      797.190      8719.292    1736.276       802.427      8719.129    1778.490
      936.313      8800.268    1736.378       943.623      8800.215    1777.294
     1075.087      8881.222    1735.786      1085.635      8881.311    1779.296
     1214.662      8962.171    1739.291      1227.905      8962.436    1781.098
     1353.263      9043.087    1739.888      1370.409      9043.596    1783.091
     1493.833      9124.052    1744.373      1512.907      9124.793    1784.778
     1633.807      9204.992    1745.785      1657.338      9206.130    1789.743
     1773.384      9285.900    1745.376      1800.134      9287.470    1790.195
     1911.092      9366.657    1741.315      1937.087      9368.482    1780.762
     2048.080      9447.277    1737.979      2077.022      9449.698    1777.362
     2185.560      9527.822    1737.229      2216.911      9530.963    1775.223
     2325.035      9608.457    1739.283      2360.898      9612.791    1778.305
     2466.190      9689.239    1742.944      2503.402      9694.692    1780.689
     2603.654      9769.348    1742.478      2640.868      9775.965    1779.057
     2746.381      9850.294    1746.433      2788.970      9859.460    1785.153
     2886.211      9930.574    1748.072      2929.535      9941.831    1784.803
     3023.094     10009.733    1747.397      3071.769     10024.948    1787.728
     3164.327     10089.936    1749.786      3218.911     10110.285    1796.501
     3308.059     10171.188    1753.862      3360.303     10194.085    1801.485
     3452.424     10253.113    1758.242      3496.077     10275.218    1800.882
     3590.053     10331.681    1755.923      3634.915     10357.447    1803.142
     3728.170     10410.217    1755.189      3770.037     10437.025    1801.973
     3866.384     10488.601    1757.317      3905.730     10516.258    1802.343
     4006.883     10568.583    1765.460      4045.258     10597.781    1811.551
     4146.069     10647.675    1776.103      4183.296     10677.903    1824.781
     4290.831     10731.636    1799.722      4326.917     10762.355    1850.419
     4437.874     10818.048    1831.408      4466.292     10842.987    1872.510
     4576.311     10897.085    1851.129      4605.656     10923.305    1893.404
     4710.541     10972.325    1860.839      4743.286     11001.820    1908.185
     4861.693     11062.852    1893.151      4889.308     11087.747    1933.024
     5008.444     11149.419    1918.510      5040.289     11178.058    1961.239
     5140.638     11222.919    1919.484      5174.450     11253.238    1960.692
     5273.310     11296.898    1916.010      5307.551     11327.541    1955.844
     5413.583     11377.692    1917.003      5441.726     11402.865    1950.889
     5557.059     11461.347    1920.768      5581.884     11483.583    1952.942
     5699.891     11544.424    1925.681      5722.911     11565.118    1957.131
     5840.543     11625.542    1925.407      5861.184     11644.210    1956.921
      317.810      8257.583    1732.819       318.042      8257.177    1772.875
      457.864      8338.613    1734.866       459.057      8338.201    1780.782
      597.621      8419.665    1733.517       600.131      8419.286    1780.001
      737.010      8500.690    1732.222       741.202      8500.390    1777.110
      876.124      8581.679    1732.058       882.699      8581.479    1777.487
     1015.261      8662.642    1733.617      1024.093      8662.582    1776.427
     1154.098      8743.591    1734.405      1164.585      8743.678    1772.531
     1292.124      8824.513    1733.763      1307.029      8824.795    1776.075
     1431.966      8905.454    1738.705      1452.390      8906.020    1785.249
     1571.666      8986.388    1742.123      1595.129      8987.229    1786.264
     1712.093      9067.345    1744.918      1738.396      9068.503    1787.543
     1853.570      9148.354    1747.672      1881.263      9149.823    1787.783
     1992.829      9229.243    1746.197      2022.463      9231.115    1785.741
     2129.243      9309.888    1741.995      2161.562      9312.316    1781.751
     2263.289      9390.197    1736.718      2296.781      9393.213    1774.504
     2401.194      9470.670    1736.200      2442.092      9475.120    1777.205
     2539.577      9551.036    1736.008      2584.227      9556.946    1776.584
     2683.632      9632.125    1740.507      2737.044      9640.737    1785.930
     2824.305      9712.695    1741.450      2872.820      9722.211    1779.479
     2957.960      9791.491    1737.281      3005.146      9802.756    1771.890
     3096.709      9870.908    1737.116      3151.530      9886.833    1777.107
     3236.934      9950.393    1737.816      3295.789      9971.083    1783.683
     3383.223     10032.156    1743.731      3439.376     10055.745    1791.676
     3529.812     10114.753    1750.677      3578.919     10138.978    1795.941
     3671.811     10195.605    1754.092      3723.347     10224.870    1805.355
     3811.077     10274.963    1756.340      3857.289     10304.566    1805.220
     3948.076     10352.634    1758.264      3990.706     10382.863    1803.967
     4086.977     10431.465    1765.900      4127.715     10462.939    1811.638
     4226.386     10510.723    1778.985      4264.949     10542.705    1825.720
     4382.331     10604.588    1818.629      4420.705     10637.999    1868.151
     4525.050     10687.633    1845.958      4556.213     10715.408    1889.213
     4650.248     10754.875    1848.655      4683.406     10784.752    1895.606
     4793.469     10838.249    1873.169      4822.950     10864.839    1914.167
     4950.279     10933.836    1912.359      4975.265     10956.284    1945.607
     5086.845     11011.187    1921.517      5117.268     11038.368    1958.227
     5213.271     11079.590    1915.184      5249.346     11111.632    1954.966
     5350.917     11158.060    1916.555      5386.241     11189.274    1954.616
     5496.532     11243.573    1922.646      5527.279     11270.640    1957.638
     5637.758     11325.205    1923.562      5661.814     11346.345    1953.016
     5779.604     11407.379    1926.909      5802.545     11427.557    1956.104
     5920.256     11488.498    1926.691      5940.899     11506.724    1955.958
      397.246      8119.996    1727.876       397.514      8119.528    1767.159
      537.279      8201.001    1731.808       538.543      8200.561    1773.976
      677.153      8282.025    1733.254       679.635      8281.650    1773.030
      816.595      8363.052    1732.243       820.895      8362.745    1772.056
      955.409      8444.055    1730.245       962.950      8443.829    1775.420
     1093.774      8525.021    1729.257      1103.869      8524.953    1772.032
     1232.541      8605.962    1731.310      1244.755      8606.054    1770.755
     1370.372      8686.877    1731.292      1386.869      8687.166    1773.531
     1509.049      8767.788    1734.573      1532.492      8768.381    1782.896
     1648.030      8848.692    1738.123      1675.408      8849.577    1784.048
     1788.098      8929.621    1741.358      1818.235      8930.808    1783.988
     1928.721      9010.565    1743.451      1962.362      9012.150    1785.598
     2069.540      9091.516    1744.577      2105.664      9093.536    1786.495
     2207.051      9172.247    1741.912      2243.583      9174.675    1781.938
     2343.034      9252.771    1738.355      2379.188      9255.649    1775.927
     2476.530      9332.890    1732.288      2522.102      9337.277    1773.709
     2615.155      9413.276    1731.038      2665.684      9419.212    1771.408
     2761.489      9494.591    1735.602      2821.213      9503.168    1778.348
     2900.386      9574.853    1734.358      2954.484      9584.337    1769.493
     3029.446      9652.729    1727.181      3089.834      9665.740    1764.255
     3171.382      9732.676    1728.067      3235.543      9749.744    1768.254
     3313.090      9812.369    1728.980      3375.858      9832.924    1772.496
     3458.108      9893.209    1733.368      3521.958      9918.698    1783.434
     3602.294      9974.100    1738.391      3657.041     10000.306    1785.128
     3744.862     10054.578    1742.764      3799.692     10085.403    1793.359
     3889.876     10137.003    1751.249      3939.198     10168.821    1799.466
     4030.446     10217.056    1758.114      4076.540     10250.406    1803.961
     4171.181     10297.411    1769.299      4214.525     10331.938    1814.902
     4313.633     10379.492    1788.153      4360.225     10419.618    1841.779
     4454.211     10460.384    1810.815      4510.022     10511.030    1877.893
     4602.522     10548.731    1844.863      4638.355     10581.865    1893.010
     4734.283     10621.720    1858.458      4768.226     10653.124    1905.551
     4886.386     10713.316    1896.771      4917.423     10741.650    1937.818
     5033.156     10799.753    1921.184      5061.823     10825.555    1955.875
     5157.544     10866.150    1915.442      5190.701     10895.663    1951.274
     5286.112     10936.540    1911.972      5324.319     10970.232    1950.070
     5429.339     11019.953    1917.898      5466.059     11052.063    1954.793
     5573.979     11104.572    1921.740      5603.444     11130.147    1953.998
     5713.568     11184.793    1920.216      5740.122     11207.715    1951.739
     5857.858     11269.060    1926.074      5881.580     11289.487    1954.974
     5998.598     11350.254    1925.756      6020.052     11368.748    1954.803
      476.676      7982.419    1721.906       476.974      7981.899    1759.832
      616.572      8063.428    1724.539       617.992      8062.938    1765.706
      756.519      8144.409    1729.351       759.359      8143.985    1768.967
      896.088      8225.420    1730.290       901.193      8225.061    1771.772
     1034.823      8306.429    1728.613      1043.020      8306.184    1771.895
     1173.516      8387.395    1729.939      1185.104      8387.312    1773.377
     1311.323      8468.340    1729.585      1325.138      8468.429    1769.532
     1450.145      8549.275    1732.711      1471.321      8549.604    1781.851
     1588.659      8630.196    1736.088      1615.333      8630.796    1786.009
     1727.333      8711.109    1739.269      1755.768      8711.917    1782.515
     1865.032      8791.968    1739.626      1898.429      8793.115    1781.826
     2003.421      8872.813    1739.601      2041.510      8874.371    1781.686
     2142.741      8953.663    1739.376      2182.936      8955.611    1780.458
     2284.213      9034.599    1740.427      2325.772      9036.993    1780.799
     2423.316      9115.376    1738.660      2470.267      9118.613    1781.724
     2560.035      9195.901    1733.724      2614.119      9200.404    1777.378
     2694.527      9276.029    1727.303      2751.913      9281.886    1767.440
     2833.993      9356.447    1725.841      2896.440      9364.303    1762.928
     2972.586      9436.577    1724.217      3039.597      9446.874    1758.984
     3106.750      9515.498    1720.263      3181.558      9529.763    1757.915
     3250.761      9595.857    1721.561      3320.553      9612.582    1758.465
     3390.702      9675.005    1721.098      3465.584      9697.527    1766.242
     3533.105      9754.564    1723.140      3601.903      9780.359    1771.333
     3672.294      9832.563    1724.382      3737.732      9862.725    1775.225
     3818.708      9914.063    1731.806      3883.425      9950.000    1786.513
     3964.801      9996.441    1740.856      4016.333     10030.056    1787.031
     4104.523     10075.247    1747.704      4155.643     10113.420    1794.930
     4250.000     10158.940    1764.181      4300.257     10200.995    1814.430
     4398.522     10246.615    1790.454      4441.664     10286.053    1839.467
     4526.903     10316.217    1799.624      4595.546     10382.511    1881.943
     4690.314     10419.980    1853.094      4720.646     10449.838    1892.848
     4830.356     10500.561    1879.625      4860.035     10529.390    1919.810
     4980.580     10590.223    1915.553      5009.468     10617.311    1952.008
     5112.957     10663.041    1922.366      5146.802     10693.784    1960.076
     5235.963     10728.027    1916.485      5272.755     10760.753    1952.486
     5364.942     10798.814    1913.934      5402.239     10831.506    1948.016
     5506.950     10881.154    1918.023      5538.997     10908.916    1948.576
     5649.624     10964.064    1919.023      5675.115     10985.905    1946.370
     5789.180     11044.306    1916.653      5814.403     11065.714    1946.376
     5935.878     11130.575    1925.225      5959.189     11150.236    1952.915
     6076.692     11211.839    1924.778      6097.851     11229.644    1952.596
      556.109      7844.839    1716.169       556.413      7844.307    1750.705
      695.916      7925.835    1718.961       697.361      7925.345    1755.198
      835.747      8006.812    1723.354       838.591      8006.396    1758.085
      975.171      8087.816    1724.608       980.455      8087.450    1762.774
     1114.472      8168.797    1727.477      1122.934      8168.543    1767.403
     1253.698      8249.768    1731.267      1264.854      8249.677    1768.528
     1392.826      8330.736    1734.934      1409.232      8330.816    1777.327
     1530.465      8411.681    1734.980      1553.744      8411.989    1783.846
     1667.125      8492.589    1734.966      1694.271      8493.106    1781.770
     1804.833      8573.491    1737.005      1833.358      8574.174    1777.363
     1943.611      8654.399    1739.304      1979.478      8655.428    1781.097
     2080.672      8735.223    1738.223      2120.682      8736.586    1778.469
     2218.952      8816.038    1736.954      2267.040      8817.984    1781.468
     2361.265      8896.997    1737.655      2411.062      8899.396    1780.996
     2504.828      8978.045    1737.418      2562.978      8981.396    1784.092
     2646.883      9059.045    1733.991      2699.620      9062.715    1771.627
     2776.827      9139.056    1722.423      2835.830      9144.100    1758.867
     2910.476      9218.992    1716.677      2981.895      9226.644    1752.401
     3041.635      9298.182    1711.568      3123.199      9308.994    1746.154
     3183.087      9378.209    1710.801      3269.200      9392.494    1747.498
     3330.321      9459.112    1713.825      3410.501      9476.088    1749.934
     3468.109      9537.763    1712.946      3552.251      9560.564    1756.699
     3607.561      9616.084    1713.291      3684.773      9642.780    1760.828
     3748.292      9694.206    1715.870      3821.302      9726.080    1766.697
     3893.592      9774.317    1721.761      3965.298      9813.220    1776.946
     4037.450      9854.283    1727.822      4095.605      9892.561    1776.067
     4174.877      9930.056    1732.669      4231.203      9973.813    1781.777
     4320.957     10013.072    1748.596      4374.981     10061.381    1801.139
     4460.625     10091.629    1762.691      4504.752     10135.483    1813.345
     4596.218     10166.761    1778.071      4683.201     10259.470    1886.977
     4723.105     10233.469    1784.538      4816.824     10335.350    1906.654
     4930.346     10386.040    1900.196      4961.902     10419.041    1942.492
     5067.726     10461.611    1919.556      5095.792     10489.068    1954.015
     5189.302     10523.279    1915.741      5224.896     10556.203    1953.119
     5313.381     10589.008    1913.630      5351.950     10623.393    1948.557
     5448.273     10665.016    1917.703      5482.334     10694.681    1946.884
     5587.021     10744.506    1919.689      5616.679     10769.921    1947.183
     5729.271     10827.030    1920.637      5755.976     10849.584    1949.179
     5874.117     10911.706    1924.078      5898.423     10931.969    1952.949
     6018.521     10995.949    1930.087      6041.717     11015.096    1957.247
     6159.232     11077.123    1929.755      6180.377     11094.476    1957.075
      635.576      7707.198    1714.447       635.849      7706.719    1742.834
      775.228      7788.248    1713.388       776.656      7787.778    1744.793
      914.932      7869.218    1717.408       917.709      7868.822    1747.460
     1054.348      7950.206    1719.815      1059.498      7949.855    1753.224
     1193.243      8031.192    1722.034      1201.517      8030.943    1757.221
     1332.035      8112.158    1726.104      1343.281      8112.053    1759.708
     1471.637      8193.121    1732.297      1488.446      8193.166    1770.885
     1611.052      8274.094    1736.789      1632.979      8274.314    1778.413
     1747.324      8355.024    1735.788      1774.174      8355.423    1779.176
     1885.202      8435.960    1737.527      1914.386      8436.498    1776.768
     2022.680      8516.869    1738.109      2061.219      8517.716    1780.704
     2159.438      8597.724    1736.976      2202.574      8598.854    1777.811
     2298.301      8678.590    1735.979      2345.336      8680.068    1776.618
     2441.737      8759.589    1736.100      2492.316      8761.507    1776.395
     2588.205      8840.758    1734.875      2647.612      8843.482    1777.446
     2725.983      8921.562    1725.469      2787.375      8924.959    1764.463
     2864.733      9002.392    1717.126      2932.775      9006.952    1754.290
     2995.685      9082.513    1708.049      3073.652      9089.053    1742.476
     3131.752      9162.572    1703.361      3214.825      9171.676    1737.290
     3278.938      9243.798    1706.105      3364.312      9255.865    1739.500
     3416.169      9323.516    1706.808      3500.089      9338.882    1740.636
     3545.142      9400.626    1704.247      3625.909      9419.894    1741.396
     3689.568      9480.450    1708.790      3768.616      9505.012    1751.715
     3830.741      9559.002    1712.480      3911.081      9591.199    1762.035
     3971.189      9636.482    1714.577      4041.463      9672.801    1763.188
     4114.540      9715.101    1718.707      4174.244      9754.356    1764.934
     4252.198      9789.786    1722.956      4306.907      9833.993    1768.784
     4397.497      9871.147    1736.167      4446.982      9918.684    1784.074
     4538.616      9950.029    1748.808      4574.968      9990.151    1791.957
     4674.340     10022.515    1759.600      4707.551     10064.874    1805.896
     4800.424     10086.792    1766.606      4897.831     10213.674    1900.810
     5006.995     10250.217    1885.979      5036.638     10284.699    1926.516
     5142.390     10321.206    1904.057      5178.303     10358.099    1947.756
     5268.052     10385.673    1907.700      5305.023     10420.558    1945.084
     5395.412     10454.067    1911.542      5427.554     10482.772    1939.196
     5529.328     10529.198    1916.808      5561.483     10556.943    1943.278
     5666.054     10606.986    1918.966      5698.847     10634.675    1949.101
     5815.742     10695.668    1929.288      5843.254     10718.480    1958.642
     5961.416     10780.857    1934.624      5984.900     10800.025    1962.492
     6103.959     10863.451    1937.910      6127.240     10882.208    1964.860