NOECHO

-- =============================================================================
-- 
-- Exported from Reek_base_sim
-- 
-- Exported by user asny from RMS11 at 2020-02-19 16:22:02
-- 
-- =============================================================================

MAPUNITS
'METRES  ' /

MAPAXES
456514.837 5939178.604
456514.837 5927115.548
467218.350 5927115.548 /

GRIDUNIT
'METRES  ' '        ' /

SPECGRID
  40  64  14   1  F  /

GDORIENT
INC INC INC DOWN RIGHT /

COORD
        0.000      8808.215    1740.227         0.256      8807.694    1790.259
      139.887      8889.244    1739.992       141.056      8888.754    1788.635
      279.643      8970.257    1741.587       282.025      8969.796    1788.626
      419.343      9051.238    1744.362       423.182      9050.861    1787.197
      558.722      9132.216    1744.075       563.846      9131.980    1779.011
      697.904      9213.174    1743.730       705.040      9213.067    1776.220
      837.102      9294.114    1745.876       847.556      9294.177    1779.834
      976.324      9375.039    1748.640       990.211      9375.345    1783.192
     1115.350      9455.942    1749.326      1130.857      9456.498    1781.068
     1253.933      9536.797    1747.021      1271.907      9537.680    1778.921
     1391.120      9617.524    1741.672      1414.924      9619.015    1779.615
     1527.898      9698.132    1737.013      1556.803      9700.357    1778.475
     1665.452      9778.697    1735.134      1698.771      9781.783    1777.239
     1803.141      9859.165    1734.312      1837.868      9862.994    1772.668
     1940.688      9939.473    1734.595      1976.991      9944.223    1770.223
     2080.396     10019.926    1738.650      2120.354     10026.125    1774.566
     2217.360     10099.748    1740.780      2259.656     10107.542    1778.029
     2355.077     10179.397    1742.799      2403.152     10189.907    1787.740
     2496.513     10259.657    1748.438      2547.931     10272.943    1800.233
     2639.438     10340.287    1756.830      2692.098     10356.292    1811.300
     2780.718     10420.388    1762.017      2832.511     10438.795    1813.666
     2919.916     10499.548    1761.554      2968.569     10519.586    1805.848
     3056.991     10577.417    1757.693      3102.180     10598.722    1796.043
     3195.201     10655.387    1755.283      3238.398     10678.386    1790.945
     3337.872     10735.702    1757.099      3377.253     10759.057    1790.208
     3479.616     10815.685    1758.879      3516.474     10839.759    1791.656
     3619.774     10894.737    1761.311      3655.996     10920.533    1796.200
     3761.390     10974.981    1766.958      3798.683     11003.633    1807.326
     3903.542     11055.970    1775.718      3938.042     11084.224    1818.335
     4043.471     11135.423    1788.428      4080.637     11167.455    1837.411
     4188.660     11219.807    1815.345      4229.649     11256.482    1867.240
     4334.393     11305.174    1842.735      4378.526     11345.625    1895.436
     4469.426     11380.933    1853.952      4517.854     11425.905    1911.263
     4611.528     11463.349    1873.273      4658.717     11507.413    1929.636
     4758.371     11550.288    1899.709      4800.914     11590.104    1950.072
     4900.548     11632.899    1916.364      4939.957     11669.861    1961.832
     5039.036     11712.054    1921.190      5077.052     11747.827    1964.290
     5179.090     11792.676    1923.203      5216.019     11827.583    1968.752
     5320.590     11874.665    1926.435      5354.410     11906.812    1973.446
     5461.592     11956.180    1931.106      5491.778     11985.071    1977.310
     5602.192     12037.305    1930.850      5628.874     12063.056    1977.161
       79.450      8670.570    1740.255        79.742      8670.057    1790.272
      219.365      8751.604    1740.033       220.550      8751.124    1788.676
      359.157      8832.617    1741.629       361.522      8832.172    1788.634
      498.927      8913.596    1744.372       502.674      8913.240    1787.173
      638.444      8994.574    1744.127       643.408      8994.355    1779.054
      777.755      9075.538    1743.800       784.763      9075.446    1776.262
      917.055      9156.485    1745.939       927.214      9156.560    1779.857
     1056.294      9237.421    1748.671      1069.403      9237.720    1783.187
     1195.354      9318.334    1749.347      1209.628      9318.847    1781.082
     1334.234      9399.215    1747.028      1350.606      9400.011    1778.927
     1471.896      9479.990    1741.688      1493.380      9481.311    1779.612
     1608.936      9560.648    1737.066      1634.824      9562.594    1778.489
     1746.961      9641.298    1735.199      1776.623      9643.969    1777.244
     1885.430      9721.904    1734.374      1916.572      9725.233    1772.695
     2024.180      9802.450    1734.768      2056.999      9806.603    1770.233
     2165.007      9883.191    1738.791      2201.736      9888.698    1774.607
     2302.446      9963.290    1740.925      2342.533      9970.429    1778.116
     2440.314     10043.206    1743.068      2486.551     10052.988    1788.058
     2581.689     10123.701    1748.884      2631.070     10136.068    1800.496
     2724.030     10204.419    1757.188      2775.868     10219.725    1811.478
     2865.571     10284.885    1762.193      2916.666     10302.578    1813.553
     3005.757     10364.766    1761.536      3052.242     10383.481    1805.610
     3144.446     10443.787    1757.624      3186.791     10463.375    1795.839
     3283.791     10522.841    1755.487      3323.424     10543.619    1790.975
     3426.542     10603.718    1757.319      3462.255     10624.641    1790.354
     3568.334     10684.258    1759.078      3601.818     10705.922    1791.846
     3707.900     10763.423    1761.613      3741.502     10787.180    1796.707
     3848.149     10843.095    1767.459      3882.860     10869.619    1807.890
     3988.373     10922.872    1776.097      4020.294     10948.910    1818.780
     4127.253     11001.658    1789.182      4160.866     11030.545    1837.725
     4271.067     11084.953    1816.041      4306.818     11116.869    1866.696
     4414.219     11168.022    1842.777      4452.795     11203.293    1894.436
     4548.650     11243.250    1853.924      4591.767     11283.159    1910.638
     4690.509     11325.444    1873.169      4732.816     11364.771    1928.924
     4836.721     11411.770    1899.501      4874.918     11447.306    1949.092
     4978.311     11493.827    1916.218      5014.839     11527.832    1961.535
     5117.632     11573.774    1921.174      5153.675     11607.400    1964.341
     5259.219     11655.836    1923.227      5294.355     11688.731    1968.851
     5402.072     11739.095    1926.523      5433.816     11768.959    1973.589
     5543.367     11820.900    1931.129      5571.772     11847.787    1977.433
     5683.101     11901.219    1930.865      5708.973     11925.898    1977.281
      158.891      8532.973    1738.757       159.240      8532.364    1789.841
      298.743      8614.012    1737.793       300.051      8613.479    1786.019
      438.452      8695.019    1739.104       441.214      8694.506    1788.852
      578.319      8775.970    1743.482       582.741      8775.567    1789.841
      717.496      8856.955    1741.037       722.773      8856.742    1776.025
      856.674      8937.906    1741.154       863.961      8937.831    1772.601
      995.815      9018.843    1743.484      1006.367      9018.939    1776.644
     1135.234      9099.774    1747.198      1149.811      9100.118    1784.187
     1274.166      9180.681    1748.099      1289.499      9181.229    1781.427
     1412.786      9261.550    1745.792      1430.188      9262.372    1778.780
     1550.040      9342.305    1740.305      1573.708      9343.696    1780.869
     1686.616      9422.938    1735.195      1713.572      9424.854    1777.761
     1824.432      9503.574    1733.020      1855.208      9506.174    1776.647
     1962.943      9584.193    1732.067      1992.945      9587.180    1769.148
     2101.920      9664.772    1732.435      2133.930      9668.532    1767.126
     2244.035      9745.683    1737.204      2280.397      9750.738    1772.269
     2379.790      9825.566    1736.991      2416.900      9831.699    1770.245
     2517.922      9905.554    1739.130      2563.026      9914.430    1780.359
     2658.818      9985.904    1744.297      2710.891      9998.084    1794.367
     2803.047     10067.062    1753.289      2859.257     10082.640    1806.925
     2945.685     10147.879    1758.204      3001.285     10166.072    1809.446
     3085.797     10227.786    1756.913      3133.309     10246.010    1799.628
     3224.206     10306.735    1752.307      3267.659     10326.058    1790.724
     3362.149     10385.066    1748.875      3402.063     10405.368    1784.925
     3506.733     10466.828    1752.765      3543.630     10487.977    1787.658
     3648.987     10547.640    1755.549      3681.097     10568.101    1787.263
     3786.159     10625.172    1755.870      3819.034     10648.179    1790.115
     3925.535     10704.094    1761.464      3961.250     10731.202    1802.860
     4066.577     10784.425    1772.808      4095.446     10807.886    1811.280
     4201.400     10859.693    1781.737      4236.585     10889.880    1832.853
     4348.154     10945.456    1814.056      4383.556     10977.026    1865.588
     4496.613     11033.342    1849.975      4532.695     11066.264    1900.076
     4624.677     11102.769    1853.343      4666.873     11141.660    1910.420
     4765.658     11184.166    1871.821      4805.956     11221.358    1925.349
     4918.315     11276.403    1905.844      4957.253     11312.248    1954.746
     5060.876     11359.336    1922.644      5099.006     11394.354    1967.731
     5194.368     11433.962    1920.961      5229.441     11466.140    1961.483
     5334.170     11514.375    1919.998      5370.756     11547.975    1965.282
     5477.979     11598.467    1923.306      5510.434     11628.353    1968.805
     5619.774     11680.712    1928.252      5649.630     11708.322    1973.290
     5759.602     11761.128    1927.978      5786.996     11786.618    1973.098
      238.351      8395.345    1738.814       238.760      8394.630    1790.868
      378.213      8476.387    1738.177       379.657      8475.785    1786.258
      517.850      8557.405    1738.142       520.989      8556.819    1789.355
      657.428      8638.372    1739.604       662.533      8637.914    1788.041
      796.581      8719.337    1738.327       803.014      8719.089    1777.022
      935.366      8800.280    1737.900       944.027      8800.203    1772.144
     1073.465      8881.193    1738.086      1086.676      8881.323    1776.687
     1212.777      8962.100    1742.557      1230.652      8962.520    1785.339
     1352.775      9043.027    1746.599      1372.731      9043.720    1787.310
     1491.877      9123.916    1746.111      1515.235      9124.969    1787.302
     1630.617      9204.766    1743.914      1657.146      9206.237    1785.949
     1767.114      9285.434    1738.914      1797.845      9287.475    1784.280
     1904.205      9366.055    1735.457      1935.610      9368.516    1777.818
     2041.354      9446.584    1732.514      2073.560      9449.545    1771.035
     2180.825      9527.239    1733.282      2211.176      9530.518    1765.342
     2320.625      9607.855    1735.311      2356.956      9612.495    1769.030
     2459.737      9688.274    1737.153      2505.267      9695.195    1775.229
     2598.082      9768.398    1738.819      2646.072      9777.108    1778.046
     2740.891      9849.235    1744.854      2794.646      9860.884    1789.757
     2882.717      9929.858    1749.941      2942.766      9945.378    1799.901
     3022.296     10009.732    1750.775      3081.589     10027.980    1798.983
     3162.787     10089.631    1749.134      3216.329     10109.150    1792.444
     3309.278     10171.891    1751.405      3358.101     10192.773    1791.983
     3453.138     10253.499    1753.844      3499.050     10276.239    1794.317
     3593.358     10333.456    1755.171      3634.741     10356.817    1794.018
     3734.607     10414.033    1758.292      3767.332     10434.753    1789.918
     3871.307     10491.591    1759.193      3905.702     10515.655    1793.860
     4008.626     10569.260    1764.387      4042.206     10594.857    1802.006
     4146.508     10647.192    1774.471      4177.529     10672.624    1814.281
     4290.993     10730.844    1799.448      4326.026     10761.208    1848.733
     4437.483     10816.837    1832.856      4468.245     10844.480    1877.103
     4573.840     10893.919    1852.410      4607.969     10925.177    1900.016
     4705.027     10966.236    1860.832      4745.112     11003.170    1914.910
     4855.437     11056.346    1892.050      4889.951     11088.065    1936.744
     5006.392     11146.918    1921.419      5041.955     11179.410    1962.716
     5137.736     11219.590    1923.261      5175.697     11254.073    1964.177
     5272.311     11295.289    1922.991      5311.474     11330.708    1964.826
     5416.399     11379.606    1927.176      5452.084     11411.804    1968.227
     5557.569     11461.283    1927.543      5588.549     11489.226    1967.608
     5698.043     11542.326    1930.225      5728.377     11569.735    1971.828
     5838.223     11623.087    1930.070      5865.896     11648.197    1971.655
      317.803      8257.729    1736.584       318.188      8257.056    1780.459
      457.765      8338.723    1739.965       459.289      8338.081    1785.917
      597.390      8419.763    1738.777       600.497      8419.181    1784.714
      736.428      8500.783    1735.051       741.810      8500.305    1780.854
      875.113      8581.741    1732.920       882.958      8581.446    1774.645
     1013.953      8662.656    1734.614      1024.423      8662.568    1771.949
     1152.480      8743.560    1737.012      1168.017      8743.713    1778.700
     1290.854      8824.442    1739.603      1310.005      8824.878    1782.161
     1430.187      8905.338    1742.849      1457.067      8906.228    1793.015
     1569.299      8986.216    1743.543      1598.659      8987.463    1790.233
     1709.786      9067.147    1744.923      1739.873      9068.703    1787.470
     1849.244      9148.019    1744.557      1885.662      9150.254    1792.569
     1987.967      9228.817    1743.098      2023.003      9231.336    1786.020
     2122.471      9309.216    1736.939      2157.607      9312.167    1776.018
     2260.215      9389.755    1735.642      2298.221      9393.493    1773.608
     2399.973      9470.398    1736.869      2438.258      9474.846    1770.361
     2536.560      9550.520    1735.360      2584.112      9557.097    1771.657
     2679.807      9631.462    1739.415      2729.555      9639.699    1774.923
     2819.512      9711.765    1741.625      2875.617      9722.911    1781.425
     2955.599      9790.994    1740.959      3010.631      9804.142    1779.945
     3093.299      9870.051    1739.289      3155.736      9888.004    1783.076
     3234.895      9949.843    1737.519      3301.292      9972.759    1784.882
     3384.977     10032.954    1741.783      3440.242     10055.668    1784.042
     3534.314     10116.840    1749.133      3588.208     10142.888    1794.295
     3675.273     10197.272    1752.449      3721.346     10223.039    1794.014
     3815.737     10277.465    1756.197      3857.772     10304.161    1795.054
     3954.172     10356.292    1760.247      3995.064     10385.253    1799.457
     4090.782     10433.545    1766.797      4130.279     10464.274    1808.737
     4228.089     10511.054    1779.141      4263.415     10540.844    1821.598
     4379.375     10601.038    1815.278      4418.339     10635.853    1866.101
     4521.457     10683.514    1844.169      4558.272     10717.356    1895.297
     4645.714     10749.444    1848.389      4685.986     10786.848    1903.659
     4786.237     10830.451    1871.440      4824.858     10866.215    1921.769
     4947.157     10930.256    1915.066      4979.651     10960.088    1954.296
     5083.856     11007.705    1924.715      5120.451     11040.977    1963.409
     5209.935     11075.680    1920.440      5251.811     11113.404    1960.947
     5349.679     11156.109    1924.795      5390.966     11193.005    1964.901
     5493.725     11240.378    1928.724      5529.102     11271.793    1966.608
     5633.836     11321.133    1927.874      5666.259     11349.812    1966.990
     5776.163     11403.839    1932.207      5807.451     11431.477    1971.787
     5916.750     11484.987    1931.991      5945.147     11510.114    1971.604
      397.242      8120.137    1731.833       397.631      8119.459    1771.882
      537.277      8201.072    1739.379       538.966      8200.360    1785.624
      677.001      8282.105    1739.446       680.387      8281.474    1784.704
      816.183      8363.126    1736.468       821.636      8362.647    1777.901
      954.859      8444.101    1733.834       964.028      8443.760    1777.011
     1092.999      8525.031    1732.963      1106.168      8524.922    1775.123
     1230.451      8605.919    1733.143      1248.713      8606.092    1777.594
     1368.266      8686.779    1735.320      1390.655      8687.263    1780.663
     1507.247      8767.650    1738.571      1538.942      8768.636    1791.950
     1646.303      8848.515    1740.301      1681.943      8849.921    1790.632
     1784.030      8929.300    1739.080      1825.194      8931.259    1789.951
     1925.199      9010.231    1741.539      1969.010      9012.687    1791.845
     2068.871      9091.335    1746.047      2110.704      9094.065    1790.943
     2206.452      9172.035    1743.575      2250.277      9175.358    1787.064
     2341.326      9252.417    1739.129      2383.695      9256.169    1777.814
     2478.715      9332.874    1737.227      2518.734      9337.046    1769.436
     2615.730      9413.122    1734.551      2661.743      9418.833    1766.219
     2758.539      9493.995    1736.426      2816.046      9502.558    1772.054
     2891.669      9573.155    1733.279      2959.479      9585.327    1773.953
     3022.107      9650.988    1728.269      3097.655      9667.477    1773.581
     3164.455      9730.734    1728.462      3234.812      9749.483    1770.759
     3310.772      9811.543    1728.582      3377.717      9833.288    1770.554
     3459.815      9893.776    1731.044      3523.318      9918.749    1775.328
     3604.139      9974.755    1734.313      3660.492     10001.288    1778.375
     3748.979     10056.459    1741.283      3803.190     10086.573    1787.018
     3891.173     10137.177    1747.765      3936.347     10166.212    1787.141
     4029.835     10215.710    1753.578      4079.953     10252.209    1798.969
     4167.434     10293.240    1762.531      4216.127     10332.742    1811.332
     4310.852     10375.756    1783.532      4362.272     10421.381    1842.100
     4448.852     10454.006    1805.671      4510.798     10512.441    1880.978
     4598.697     10544.085    1844.400      4638.438     10582.408    1897.786
     4729.247     10615.635    1858.885      4771.878     10656.603    1916.017
     4881.481     10707.822    1898.263      4917.914     10742.119    1943.472
     5031.446     10797.416    1926.385      5068.430     10831.511    1967.308
     5153.199     10861.162    1919.668      5194.632     10898.744    1959.505
     5280.168     10930.092    1916.677      5327.217     10972.205    1958.008
     5425.105     11015.229    1924.637      5470.700     11055.569    1965.589
     5569.613     11099.919    1928.353      5611.466     11136.573    1970.946
     5709.122     11180.211    1926.509      5749.041     11214.889    1972.756
     5852.994     11264.266    1932.003      5888.777     11295.195    1974.952
     5994.105     11345.896    1931.714      6026.581     11373.927    1974.883
      476.638      7982.621    1723.420       476.996      7981.995    1756.500
      616.548      8063.521    1732.139       617.950      8062.936    1766.993
      756.165      8144.528    1733.670       759.742      8143.871    1776.707
      895.603      8225.499    1734.391       901.519      8224.987    1774.260
     1035.058      8306.444    1735.674      1044.057      8306.115    1773.464
     1173.224      8387.397    1734.351      1188.075      8387.273    1777.182
     1311.071      8468.307    1735.119      1330.567      8468.478    1777.710
     1446.225      8549.134    1732.059      1473.228      8549.679    1780.529
     1584.439      8629.979    1734.477      1616.953      8630.917    1783.387
     1724.579      8710.879    1738.486      1760.252      8712.170    1782.990
     1860.595      8791.601    1736.314      1905.767      8793.553    1784.745
     1998.714      8872.362    1736.116      2045.726      8874.736    1782.611
     2145.384      8953.577    1743.317      2196.162      8956.546    1790.067
     2287.595      9034.586    1745.084      2339.291      9038.083    1789.569
     2426.801      9115.390    1743.766      2476.218      9119.272    1783.506
     2570.389      9196.557    1744.479      2617.447      9200.892    1778.349
     2702.599      9276.574    1736.030      2753.857      9282.194    1767.637
     2840.131      9356.926    1732.792      2913.312      9366.583    1772.187
     2968.894      9435.644    1726.823      3056.136      9449.567    1771.097
     3099.599      9513.698    1721.600      3186.914      9530.865    1766.519
     3238.967      9592.595    1719.301      3321.625      9612.797    1762.416
     3386.925      9673.479    1719.497      3465.010      9697.138    1762.789
     3534.274      9754.641    1720.038      3608.583      9782.364    1767.164
     3672.900      9832.468    1719.279      3741.834      9863.865    1768.885
     3819.646      9914.014    1727.586      3886.636      9950.884    1780.095
     3964.401      9995.311    1736.807      4019.916     10031.594    1782.469
     4104.905     10074.308    1745.352      4163.411     10118.735    1795.641
     4243.426     10151.775    1755.846      4305.550     10205.497    1815.133
     4392.050     10239.054    1782.419      4443.601     10288.430    1839.817
     4520.274     10307.513    1794.064      4598.776     10387.606    1889.339
     4686.151     10415.152    1854.190      4722.859     10453.306    1901.961
     4824.575     10494.126    1880.420      4866.633     10536.915    1935.492
     4978.581     10587.866    1921.483      5013.259     10621.552    1962.815
     5108.551     10658.089    1926.445      5144.850     10691.934    1963.899
     5227.104     10718.786    1918.035      5272.160     10759.662    1957.970
     5360.275     10793.387    1920.518      5412.243     10839.639    1962.889
     5501.713     10875.442    1924.707      5554.977     10922.136    1970.012
     5643.742     10958.007    1925.354      5689.639     10997.689    1970.665
     5785.397     11040.233    1925.140      5828.324     11076.898    1974.163
     5931.425     11126.124    1932.871      5969.831     11158.631    1977.679
     6072.865     11208.061    1932.510      6107.681     11237.384    1977.569
      556.048      7845.079    1717.453       556.467      7844.347    1752.680
      695.646      7926.035    1721.714       697.118      7925.432    1754.656
      834.982      8007.011    1724.475       838.835      8006.318    1765.894
      974.247      8087.936    1727.289       981.152      8087.352    1768.740
     1113.814      8168.839    1730.966      1124.151      8168.469    1770.096
     1253.792      8249.760    1735.689      1269.063      8249.632    1775.686
     1391.123      8330.689    1734.771      1409.942      8330.838    1771.589
     1527.678      8411.562    1734.189      1551.988      8412.012    1772.564
     1664.238      8492.392    1733.999      1695.157      8493.206    1775.068
     1800.960      8573.195    1734.018      1839.096      8574.436    1775.955
     1939.643      8654.032    1735.424      1986.177      8655.821    1779.007
     2074.448      8734.669    1732.829      2122.536      8736.814    1773.745
     2218.940      8815.716    1737.474      2265.770      8818.122    1774.361
     2365.519      8896.928    1741.730      2417.477      8900.002    1780.158
     2514.121      8978.375    1745.565      2564.991      8981.850    1781.037
     2658.369      9059.652    1743.873      2706.001      9063.447    1774.151
     2790.710      9139.937    1733.683      2848.271      9145.366    1765.486
     2922.187      9219.843    1726.095      3010.205      9229.902    1767.827
     3049.207      9298.646    1719.439      3142.973      9311.777    1760.696
     3184.313      9377.749    1715.791      3265.815      9392.011    1753.550
     3320.835      9456.338    1712.554      3410.077      9476.071    1754.266
     3460.544      9534.932    1709.149      3549.161      9559.614    1753.167
     3605.722      9614.785    1708.403      3690.669      9644.376    1757.131
     3742.193      9691.010    1706.494      3822.530      9725.795    1759.064
     3887.482      9770.368    1712.760      3962.880      9810.904    1767.645
     4032.641      9850.086    1721.697      4107.991      9899.863    1780.974
     4172.208      9926.292    1729.411      4247.541      9986.210    1792.499
     4314.989     10005.306    1742.557      4391.160     10076.583    1814.100
     4457.083     10085.150    1759.355      4517.875     10149.465    1827.993
     4589.638     10156.126    1773.541      4686.595     10266.857    1897.844
     4712.393     10217.700    1780.120      4821.193     10343.348    1920.461
     4925.550     10381.618    1903.530      4966.939     10427.190    1957.647
     5065.520     10459.439    1927.158      5099.496     10494.030    1967.405
     5185.344     10518.570    1922.615      5221.834     10553.288    1959.053
     5305.544     10580.527    1917.547      5356.005     10626.442    1959.946
     5442.523     10658.590    1923.491      5497.671     10707.361    1966.267
     5582.252     10739.142    1926.497      5632.238     10782.487    1967.483
     5724.322     10821.736    1927.547      5770.390     10861.001    1972.009
     5868.923     10906.440    1930.850      5911.024     10941.763    1978.552
     6013.717     10991.214    1937.237      6052.675     11023.484    1981.735
     6155.201     11073.186    1936.912      6190.438     11102.130    1981.665
      635.500      7707.464    1715.283       636.007      7706.579    1755.201
      774.965      7788.451    1717.329       776.865      7787.695    1755.647
      914.157      7869.420    1720.025       918.553      7868.655    1762.419
     1053.111      7950.349    1722.319      1061.025      7949.701    1765.151
     1191.527      8031.268    1723.084      1203.782      8030.843    1765.357
     1330.991      8112.152    1728.184      1345.758      8112.026    1763.594
     1470.007      8193.064    1731.655      1490.674      8193.207    1767.983
     1609.525      8273.991    1735.433      1634.236      8274.402    1769.783
     1746.076      8354.858    1734.939      1777.123      8355.581    1771.008
     1881.012      8435.648    1732.934      1915.186      8436.619    1766.273
     2018.973      8516.490    1733.769      2065.079      8518.014    1772.457
     2154.480      8597.206    1732.198      2204.474      8599.107    1769.921
     2300.894      8678.326    1737.191      2352.123      8680.564    1772.671
     2445.397      8759.408    1737.992      2495.858      8761.942    1770.682
     2594.991      8840.835    1739.374      2642.670      8843.596    1768.633
     2736.533      8921.891    1733.187      2791.504      8925.565    1764.220
     2875.230      9002.771    1724.792      2941.637      9007.907    1757.876
     3004.432      9082.758    1715.536      3092.858      9090.912    1753.941
     3131.084      9161.808    1707.884      3234.916      9174.226    1753.948
     3268.972      9241.541    1706.670      3367.419      9256.706    1750.637
     3405.360      9320.517    1705.039      3494.305      9338.062    1743.931
     3536.240      9397.298    1699.864      3637.231      9422.734    1745.973
     3681.920      9477.065    1701.385      3773.178      9506.135    1748.577
     3824.538      9555.787    1704.203      3913.015      9591.122    1756.106
     3965.311      9632.766    1706.963      4045.276      9673.632    1760.614
     4103.786      9706.947    1709.610      4181.490      9758.142    1768.704
     4246.018      9782.792    1718.044      4329.833      9852.344    1788.668
     4389.281      9860.054    1729.228      4466.034      9938.019    1803.092
     4533.610      9940.439    1744.080      4591.139     10009.284    1813.311
     4670.024     10011.826    1756.094      4722.509     10085.277    1834.875
     4792.579     10071.818    1763.391      4903.081     10225.438    1921.292
     5000.014     10243.067    1888.429      5047.103     10300.886    1953.257
     5141.500     10320.477    1915.325      5181.520     10363.401    1963.752
     5265.144     10381.943    1916.914      5308.290     10423.892    1959.672
     5395.249     10452.562    1922.390      5442.256     10495.420    1960.932
     5532.041     10530.170    1928.945      5582.617     10574.464    1967.104
     5664.116     10604.013    1927.264      5720.269     10651.968    1972.094
     5812.165     10691.564    1935.262      5863.973     10734.918    1983.852
     5955.196     10774.802    1938.831      5997.608     10809.645    1985.310
     6098.629     10858.329    1943.170      6137.853     10890.054    1986.476