NOECHO

-- =============================================================================
-- 
-- Exported from Reek_base_sim
-- 
-- Exported by user asny from RMS11 at 2020-02-19 16:55:40
-- 
-- =============================================================================

MAPUNITS
'METRES  ' /

MAPAXES
456514.868 5939177.091
456514.868 5927115.548
467218.162 5927115.548 /

GRIDUNIT
'METRES  ' '        ' /

SPECGRID
  40  64  14   1  F  /

GDORIENT
INC INC INC DOWN RIGHT /

COORD
        0.000      8808.152    1738.670         0.207      8807.727    1771.739
      140.005      8889.188    1739.636       140.942      8888.792    1771.312
      279.891      8970.216    1740.605       281.812      8969.831    1773.638
      419.684      9051.221    1742.125       423.133      9050.854    1779.464
      559.464      9132.205    1743.939       564.596      9131.924    1781.033
      699.168      9213.183    1745.065       705.825      9213.030    1777.708
      838.432      9294.154    1744.285       847.599      9294.141    1775.188
      977.489      9375.098    1743.096       990.002      9375.291    1773.947
     1116.715      9456.019    1741.580      1131.607      9456.468    1771.539
     1255.820      9536.907    1738.927      1274.334      9537.729    1772.346
     1393.742      9617.691    1734.706      1415.761      9618.990    1771.346
     1531.416      9698.380    1732.828      1555.275      9700.160    1767.783
     1670.339      9779.089    1734.732      1697.269      9781.558    1767.961
     1808.099      9859.601    1735.431      1837.372      9862.849    1765.789
     1945.076      9939.867    1735.564      1976.380      9944.049    1763.545
     2083.565     10020.149    1737.087      2117.818     10025.652    1764.827
     2220.912     10100.014    1737.678      2258.224     10107.219    1766.923
     2359.875     10179.925    1740.114      2397.885     10188.725    1770.772
     2501.324     10260.267    1746.017      2539.539     10270.818    1778.759
     2643.604     10340.834    1754.361      2683.006     10353.714    1789.711
     2784.655     10420.980    1761.265      2828.371     10437.756    1801.320
     2924.966     10500.733    1765.576      2970.986     10521.222    1807.470
     3064.750     10580.105    1766.908      3111.288     10603.790    1808.446
     3203.543     10658.772    1765.302      3249.026     10684.827    1805.447
     3343.244     10737.819    1763.339      3385.830     10764.862    1801.296
     3483.487     10817.202    1761.902      3519.516     10842.229    1795.355
     3622.166     10895.481    1761.013      3656.819     10921.495    1795.454
     3760.471     10973.414    1763.156      3797.464     11003.078    1803.252
     3901.049     11053.270    1771.704      3937.424     11084.061    1815.059
     4041.670     11133.416    1785.780      4079.111     11166.468    1832.934
     4186.165     11217.350    1810.691      4227.150     11254.648    1860.486
     4332.575     11303.457    1837.035      4376.578     11344.290    1887.451
     4469.141     11380.631    1848.319      4515.585     11424.189    1901.395
     4612.457     11464.236    1867.504      4656.396     11505.625    1919.243
     4759.596     11551.526    1893.900      4798.550     11588.269    1940.457
     4903.253     11635.558    1912.001      4940.426     11670.657    1953.416
     5042.748     11715.666    1919.455      5078.890     11749.859    1958.903
     5181.741     11795.295    1922.624      5215.149     11826.995    1962.214
     5322.588     11876.677    1926.897      5353.422     11906.050    1968.054
     5463.148     11957.782    1931.982      5490.093     11983.583    1971.925
     5603.349     12038.529    1931.705      5627.218     12061.542    1971.762
       79.458      8670.501    1738.704        79.696      8670.083    1771.761
      219.508      8751.540    1739.666       220.462      8751.150    1771.351
      359.443      8832.569    1740.645       361.384      8832.190    1773.675
      499.311      8913.573    1742.169       502.785      8913.215    1779.466
      639.196      8994.560    1743.982       644.304      8994.295    1781.036
      779.000      9075.546    1745.085       785.544      9075.407    1777.724
      918.380      9156.524    1744.333       927.429      9156.522    1775.215
     1057.456      9237.478    1743.144      1069.743      9237.675    1773.951
     1196.694      9318.410    1741.627      1211.026      9318.839    1771.550
     1335.938      9399.315    1738.950      1353.354      9400.075    1772.345
     1474.055      9480.127    1734.768      1494.516      9481.304    1771.355
     1612.004      9560.863    1732.912      1634.057      9562.456    1767.796
     1751.364      9641.642    1734.782      1776.158      9643.835    1767.950
     1889.901      9722.286    1735.499      1916.725      9725.153    1765.791
     2027.945      9802.772    1735.691      2056.504      9806.443    1763.549
     2167.389      9883.322    1737.179      2198.964      9888.205    1764.847
     2305.850      9963.577    1737.846      2340.910      9970.104    1766.973
     2445.818     10043.953    1740.441      2481.935     10052.040    1770.923
     2587.621     10124.691    1746.496      2623.932     10134.418    1779.083
     2729.194     10205.382    1754.771      2767.002     10217.420    1790.033
     2870.111     10285.833    1761.603      2913.229     10302.013    1801.656
     3010.695     10366.075    1765.805      3056.144     10385.945    1807.638
     3150.843     10446.024    1766.989      3195.874     10468.621    1808.442
     3290.142     10525.397    1765.305      3333.146     10549.770    1805.484
     3430.708     10605.422    1763.319      3470.494     10630.484    1801.120
     3571.810     10685.867    1761.894      3605.272     10708.970    1795.359
     3710.417     10764.590    1761.060      3742.677     10788.696    1795.850
     3847.385     10841.911    1763.526      3881.740     10869.366    1803.802
     3986.260     10920.665    1772.246      4019.256     10948.523    1815.440
     4125.390     10999.713    1786.461      4158.402     11028.794    1833.041
     4268.542     11082.548    1811.341      4303.438     11114.238    1859.753
     4412.653     11166.573    1837.122      4450.570     11201.674    1886.475
     4548.748     11243.326    1848.333      4589.924     11281.829    1900.877
     4691.620     11326.509    1867.446      4730.940     11363.403    1918.593
     4837.559     11412.643    1893.603      4872.200     11445.158    1939.339
     4980.357     11495.849    1911.758      5015.131     11528.488    1953.033
     5120.400     11576.471    1919.391      5155.236     11609.203    1958.871
     5260.438     11657.088    1922.619      5293.034     11687.783    1962.290
     5402.249     11739.375    1926.927      5432.365     11767.826    1968.106
     5543.347     11820.987    1931.999      5569.850     11846.144    1972.003
     5683.408     11901.609    1931.720      5707.090     11924.229    1971.836
      158.907      8532.890    1736.433       159.188      8532.401    1770.554
      298.939      8613.925    1737.638       299.972      8613.500    1768.948
      438.788      8694.962    1737.821       440.958      8694.543    1771.301
      578.583      8775.961    1739.118       582.634      8775.558    1778.181
      718.409      8856.941    1740.789       724.026      8856.667    1777.554
      858.396      8937.914    1743.304       865.015      8937.792    1773.311
      997.131      9018.891    1741.133      1006.134      9018.904    1769.282
     1136.218      9099.838    1741.134      1149.364      9100.053    1771.953
     1275.231      9180.758    1739.972      1289.400      9181.173    1768.166
     1415.307      9261.695    1739.324      1433.100      9262.434    1772.059
     1552.362      9342.464    1733.602      1574.017      9343.632    1770.769
     1690.033      9423.188    1731.385      1713.131      9424.739    1766.703
     1829.708      9503.995    1733.337      1854.802      9506.044    1766.187
     1966.852      9584.519    1732.125      1992.296      9587.018    1760.712
     2106.495      9665.195    1733.822      2133.446      9668.372    1760.304
     2246.227      9745.808    1735.131      2276.487      9750.104    1761.784
     2382.848      9825.792    1733.612      2418.357      9831.888    1762.685
     2522.931      9906.154    1735.651      2560.331      9913.922    1765.969
     2665.020      9986.880    1741.161      2703.577      9996.538    1773.828
     2807.632     10067.796    1749.405      2846.352     10079.421    1783.369
     2949.291     10148.465    1756.126      2995.493     10164.973    1796.241
     3089.887     10228.696    1759.804      3136.476     10248.279    1800.328
     3231.583     10309.365    1762.162      3279.056     10332.490    1804.542
     3368.982     10387.748    1758.953      3410.723     10410.908    1797.809
     3510.400     10468.216    1757.870      3550.929     10493.383    1796.103
     3652.229     10549.136    1757.434      3682.656     10569.952    1787.577
     3788.356     10626.069    1754.703      3820.076     10649.638    1788.573
     3923.842     10702.140    1756.827      3959.594     10730.621    1798.338
     4065.619     10783.222    1770.801      4096.422     10809.186    1811.253
     4200.670     10858.712    1781.018      4233.112     10887.257    1827.743
     4345.953     10943.401    1810.024      4378.618     10973.012    1857.092
     4496.079     11032.960    1845.285      4530.516     11064.747    1892.016
     4625.868     11103.899    1848.747      4665.035     11140.358    1900.226
     4767.907     11186.296    1867.171      4804.921     11220.800    1915.504
     4919.700     11277.838    1900.260      4957.433     11312.942    1947.821
     5061.773     11360.333    1916.850      5094.870     11391.053    1954.666
     5197.101     11436.579    1919.113      5230.256     11467.318    1955.522
     5335.527     11515.705    1919.780      5368.356     11546.146    1958.219
     5478.386     11598.936    1924.185      5509.936     11628.235    1965.400
     5620.406     11681.387    1929.455      5648.272     11707.346    1969.241
     5760.735     11762.254    1929.194      5785.712     11785.638    1969.063
      238.372      8395.252    1734.756       238.698      8394.683    1770.684
      378.353      8476.320    1734.183       379.544      8475.818    1767.796
      518.169      8557.350    1735.031       520.605      8556.877    1769.305
      657.844      8638.351    1735.775       662.027      8637.940    1771.773
      797.599      8719.323    1737.328       803.772      8719.031    1773.031
      936.976      8800.300    1737.853       944.419      8800.170    1767.453
     1075.237      8881.261    1736.481      1085.799      8881.280    1766.083
     1215.291      8962.207    1740.202      1227.475      8962.400    1766.606
     1355.162      9043.153    1741.604      1370.285      9043.573    1769.776
     1495.791      9124.123    1742.465      1514.927      9124.864    1775.044
     1635.826      9205.072    1741.730      1656.234      9206.088    1773.820
     1773.163      9285.849    1738.220      1795.290      9287.208    1769.498
     1907.567      9366.332    1732.363      1932.126      9368.155    1762.665
     2044.823      9446.891    1730.999      2074.702      9449.548    1763.431
     2185.742      9527.709    1733.794      2213.716      9530.695    1760.853
     2323.135      9608.058    1732.615      2351.922      9611.764    1757.564
     2460.639      9688.205    1731.190      2497.534      9693.975    1760.231
     2603.719      9769.132    1734.760      2650.084      9777.967    1769.593
     2747.861      9850.402    1740.704      2793.890      9861.071    1775.696
     2887.657      9930.688    1745.059      2925.400      9941.278    1774.427
     3025.472     10010.091    1747.621      3067.924     10024.425    1780.904
     3164.451     10089.458    1749.302      3211.734     10108.476    1787.367
     3311.872     10172.439    1756.016      3360.957     10195.611    1797.553
     3454.910     10253.935    1758.355      3494.448     10275.449    1793.681
     3594.320     10333.550    1756.695      3632.981     10357.325    1791.967
     3734.057     10413.288    1756.198      3767.888     10436.375    1788.366
     3870.689     10490.717    1756.046      3906.680     10517.517    1792.490
     4007.544     10568.021    1761.250      4046.382     10599.119    1804.459
     4146.389     10646.838    1773.849      4177.638     10673.373    1813.513
     4289.101     10729.189    1797.037      4320.791     10757.269    1841.559
     4436.961     10816.562    1830.821      4466.288     10843.261    1872.696
     4574.111     10894.369    1848.301      4603.303     10921.346    1888.140
     4708.921     10969.997    1859.156      4742.610     11001.299    1903.398
     4859.106     11059.961    1888.375      4888.943     11087.649    1926.266
     5006.215     11147.055    1913.543      5040.533     11178.767    1953.482
     5136.977     11219.083    1915.838      5170.430     11249.849    1951.517
     5272.031     11295.136    1917.567      5304.156     11324.564    1951.153
     5415.325     11378.748    1923.002      5442.918     11403.963    1953.982
     5556.333     11460.260    1924.621      5584.271     11485.769    1959.586
     5698.314     11542.651    1928.898      5725.772     11567.750    1966.125
     5838.947     11623.800    1928.654      5863.466     11646.287    1965.831
      317.872      8257.555    1735.441       318.190      8256.999    1768.077
      457.980      8338.621    1735.709       459.247      8338.081    1769.165
      597.785      8419.692    1734.802       600.519      8419.158    1769.915
      737.122      8500.740    1732.495       741.727      8500.289    1767.596
      876.449      8581.723    1732.513       883.434      8581.396    1767.473
     1015.544      8662.688    1733.415      1024.322      8662.537    1763.538
     1154.677      8743.636    1735.959      1165.683      8743.652    1763.381
     1293.064      8824.561    1736.873      1305.266      8824.742    1761.138
     1432.071      8905.474    1737.996      1453.004      8906.009    1773.774
     1572.719      8986.424    1739.793      1595.950      8987.246    1775.165
     1715.990      9067.500    1744.020      1740.301      9068.596    1777.673
     1856.935      9148.506    1745.106      1883.159      9149.955    1777.952
     1992.360      9229.159    1740.072      2021.007      9231.063    1772.122
     2127.544      9309.670    1735.614      2161.028      9312.329    1769.475
     2264.196      9390.155    1733.727      2295.519      9393.136    1762.652
     2401.599      9470.555    1732.104      2434.905      9474.386    1759.758
     2541.388      9551.086    1731.416      2582.785      9556.897    1761.967
     2682.102      9631.651    1732.043      2728.461      9639.634    1763.587
     2827.758      9713.168    1737.343      2877.885      9723.763    1770.690
     2962.312      9792.163    1736.582      3007.839      9803.949    1767.282
     3097.102      9870.418    1736.049      3147.815      9886.430    1771.184
     3238.827      9950.343    1738.692      3290.843      9970.204    1776.817
     3385.263     10032.335    1743.498      3434.629     10054.819    1782.442
     3535.354     10117.036    1751.719      3581.081     10141.423    1790.113
     3677.301     10198.226    1754.060      3720.968     10224.917    1792.010
     3816.794     10278.000    1755.814      3858.006     10306.247    1792.982
     3950.979     10353.743    1755.645      3993.691     10385.907    1796.180
     4087.687     10430.910    1762.206      4127.542     10463.349    1803.974
     4224.776     10508.210    1774.636      4260.970     10539.583    1817.928
     4378.771     10600.848    1814.121      4421.189     10639.231    1869.551
     4524.764     10686.950    1846.340      4559.071     10718.661    1893.540
     4650.819     10754.526    1850.061      4685.458     10786.822    1896.771
     4793.445     10837.466    1873.230      4824.198     10866.107    1912.649
     4951.727     10934.905    1911.883      4978.137     10959.361    1943.449
     5088.055     11011.940    1921.629      5119.952     11041.269    1955.767
     5213.057     11078.713    1917.003      5247.705     11110.341    1951.204
     5349.519     11156.098    1919.261      5380.894     11184.545    1950.338
     5494.031     11240.794    1925.174      5523.244     11267.135    1956.883
     5633.450     11320.882    1924.376      5663.969     11348.297    1961.506
     5776.449     11404.175    1929.126      5805.155     11429.922    1966.484
     5917.370     11485.587    1928.829      5943.086     11508.679    1966.276
      397.311      8119.963    1729.373       397.601      8119.457    1757.276
      537.447      8200.987    1732.449       538.764      8200.426    1764.917
      677.274      8282.055    1732.364       680.165      8281.493    1766.320
      816.534      8363.114    1730.032       821.196      8362.661    1761.462
      955.292      8444.123    1728.378       962.163      8443.803    1757.987
     1093.884      8525.081    1729.145      1103.518      8524.915    1757.677
     1232.852      8606.013    1732.458      1246.713      8606.023    1763.269
     1372.154      8686.942    1736.268      1388.651      8687.162    1766.361
     1509.418      8767.820    1735.434      1534.808      8768.407    1774.769
     1650.406      8848.771    1738.477      1680.074      8849.711    1778.332
     1792.200      8929.767    1740.950      1820.645      8930.906    1775.120
     1936.271      9010.896    1745.579      1964.360      9012.268    1776.074
     2075.322      9091.799    1744.531      2109.224      9093.784    1777.842
     2211.846      9172.499    1741.224      2247.656      9174.999    1773.604
     2348.370      9253.100    1738.460      2384.574      9256.127    1769.085
     2485.438      9333.624    1735.318      2518.679      9336.982    1760.805
     2622.306      9413.952    1730.863      2662.893      9418.972    1758.232
     2762.620      9494.547    1729.906      2814.490      9502.473    1761.398
     2900.196      9574.510    1728.878      2959.360      9585.700    1762.996
     3032.455      9652.812    1725.957      3092.660      9666.954    1760.947
     3169.329      9731.309    1725.773      3231.632      9749.461    1763.637
     3313.881      9811.720    1728.741      3370.462      9832.016    1766.163
     3459.772      9892.951    1731.769      3518.594      9918.608    1774.849
     3610.588      9977.389    1740.387      3662.159     10004.255    1781.001
     3753.417     10058.677    1744.857      3805.442     10090.328    1787.667
     3895.771     10140.092    1750.930      3947.523     10175.944    1795.173
     4032.012     10217.235    1754.580      4080.073     10254.234    1797.329
     4168.338     10294.032    1762.316      4213.331     10331.808    1806.801
     4308.479     10374.016    1780.001      4350.902     10412.178    1828.512
     4450.064     10455.736    1805.889      4512.951     10514.908    1882.504
     4600.943     10546.758    1843.650      4641.597     10585.682    1897.723
     4732.994     10619.761    1857.339      4769.581     10654.750    1905.994
     4888.186     10714.640    1898.564      4918.994     10743.665    1936.888
     5036.068     10802.261    1923.301      5063.832     10828.021    1954.296
     5159.145     10867.003    1918.137      5194.722     10899.617    1953.307
     5288.333     10937.673    1917.549      5329.361     10974.896    1955.223
     5430.729     11020.440    1924.448      5466.961     11052.998    1958.762
     5571.732     11101.958    1926.254      5604.944     11131.545    1961.648
     5711.380     11182.282    1925.107      5744.344     11211.438    1964.840
     5855.444     11266.493    1930.652      5885.282     11292.764    1968.432
     5996.607     11348.123    1930.351      6023.404     11371.681    1968.286
      476.693      7982.470    1719.577       476.995      7981.943    1746.278
      616.665      8063.457    1723.917       617.966      8062.909    1753.433
      756.514      8144.465    1727.107       759.400      8143.912    1758.155
      896.338      8225.450    1729.631       901.448      8224.961    1760.311
     1035.357      8306.465    1729.119      1042.960      8306.116    1757.729
     1174.553      8387.435    1731.374      1186.029      8387.234    1761.212
     1311.985      8468.394    1731.067      1325.819      8468.392    1758.803
     1449.273      8549.304    1731.905      1470.755      8549.553    1767.878
     1587.592      8630.200    1733.876      1614.551      8630.749    1771.890
     1727.459      8711.120    1736.150      1757.437      8711.951    1772.162
     1865.448      8791.969    1735.128      1898.233      8793.110    1769.739
     2011.453      8873.116    1741.716      2048.581      8874.685    1776.743
     2153.563      8954.148    1743.487      2193.261      8956.157    1777.355
     2295.960      9035.227    1744.678      2334.175      9037.531    1774.795
     2436.768      9116.245    1743.900      2473.126      9118.864    1770.853
     2576.254      9197.179    1740.443      2621.503      9201.112    1771.199
     2709.207      9277.411    1731.667      2760.337      9282.877    1762.642
     2845.543      9357.732    1727.121      2900.869      9365.110    1756.782
     2973.732      9436.375    1720.723      3041.698      9447.657    1754.498
     3101.337      9513.694    1715.184      3176.732      9529.469    1753.273
     3247.211      9594.109    1718.911      3324.030      9614.453    1760.188
     3393.512      9674.888    1721.748      3462.280      9697.765    1762.717
     3536.110      9754.586    1721.382      3591.540      9777.492    1759.050
     3677.281      9833.575    1723.108      3739.167      9864.821    1768.619
     3824.416      9916.065    1731.507      3885.123      9952.731    1778.522
     3969.718      9998.599    1740.553      4024.678     10037.237    1785.023
     4104.421     10073.803    1743.958      4162.086     10119.692    1792.201
     4245.762     10154.138    1756.637      4300.973     10202.816    1808.735
     4394.335     10242.001    1783.685      4429.400     10275.432    1823.258
     4523.074     10311.474    1795.168      4598.350     10386.695    1886.606
     4686.917     10416.411    1849.850      4724.591     10454.680    1898.760
     4829.433     10499.485    1878.905      4864.525     10534.631    1924.901
     4980.982     10590.687    1916.033      5008.947     10617.708    1949.909
     5113.129     10663.015    1923.280      5143.907     10691.810    1955.903
     5235.663     10727.104    1918.714      5275.615     10763.695    1955.697
     5367.822     10800.496    1920.829      5409.422     10838.026    1956.913
     5507.095     10880.449    1924.416      5548.439     10917.289    1962.450
     5647.793     10961.719    1925.307      5683.425     10993.095    1963.103
     5790.163     11044.461    1926.588      5823.331     11073.361    1966.747
     5935.170     11129.455    1932.976      5965.759     11155.896    1971.089
     6076.565     11211.284    1932.642      6104.027     11234.915    1970.929
      556.097      7844.940    1713.274       556.446      7844.329    1741.760
      695.898      7925.915    1717.243       697.280      7925.346    1745.654
      835.707      8006.880    1721.862       838.923      8006.279    1753.260
      975.442      8087.850    1724.882       981.684      8087.267    1758.736
     1115.368      8168.811    1728.864      1124.754      8168.388    1760.522
     1255.028      8249.792    1732.086      1267.826      8249.565    1762.063
     1391.437      8330.777    1729.884      1406.912      8330.758    1758.312
     1528.952      8411.704    1731.423      1551.402      8411.917    1766.197
     1666.047      8492.598    1732.057      1695.643      8493.106    1770.672
     1802.495      8573.451    1731.160      1835.576      8574.219    1767.794
     1941.201      8654.324    1732.118      1980.605      8655.468    1769.895
     2081.680      8735.229    1733.974      2128.091      8736.863    1772.972
     2226.832      8816.317    1738.165      2271.872      8818.220    1771.909
     2376.490      8897.693    1743.313      2414.042      8899.590    1769.055
     2525.343      8979.199    1745.525      2563.103      8981.480    1769.725
     2667.477      9060.448    1741.210      2710.644      9063.592    1766.978
     2796.017      9140.617    1728.658      2852.394      9145.674    1759.408
     2928.734      9220.815    1721.589      2999.696      9228.885    1755.214
     3052.453      9299.252    1713.305      3139.426      9311.736    1751.323
     3186.559      9378.125    1710.782      3274.345      9394.223    1751.003
     3329.978      9458.201    1713.411      3422.448      9480.076    1758.619
     3470.338      9537.277    1713.179      3548.453      9560.964    1755.270
     3611.048      9615.973    1711.353      3681.398      9643.043    1754.972
     3748.229      9692.489    1710.987      3817.145      9725.672    1757.400
     3893.451      9772.528    1717.606      3956.022      9809.643    1762.693
     4036.982      9852.240    1724.467      4097.888      9895.620    1771.090
     4174.616      9927.926    1730.151      4237.897      9980.442    1780.718
     4317.032     10007.881    1742.480      4378.792     10066.074    1799.334
     4457.889     10087.561    1758.082      4506.683     10138.014    1813.632
     4591.011     10159.927    1772.027      4684.924     10263.219    1891.531
     4718.151     10226.670    1780.662      4820.563     10340.966    1913.159
     4929.682     10385.911    1900.404      4964.120     10422.912    1945.635
     5067.270     10461.525    1920.638      5097.687     10492.144    1957.333
     5190.910     10524.572    1920.220      5228.662     10560.507    1959.232
     5315.329     10590.105    1919.112      5363.270     10634.100    1961.578
     5451.061     10666.695    1924.935      5498.594     10709.317    1964.697
     5590.081     10746.371    1929.131      5630.594     10782.109    1965.953
     5728.961     10826.009    1929.135      5765.229     10857.529    1967.635
     5872.083     10909.358    1931.570      5905.975     10938.413    1972.804
     6016.937     10994.138    1937.486      6048.458     11020.860    1976.263
     6158.529     11076.115    1937.166      6186.714     11099.828    1976.167
      635.575      7707.279    1713.687       635.898      7706.715    1738.480
      775.308      7788.294    1715.209       776.757      7787.716    1742.318
      915.134      7869.248    1719.531       918.828      7868.581    1752.349
     1054.481      7950.255    1720.496      1060.099      7949.746    1748.584
     1193.579      8031.238    1722.842      1202.796      8030.830    1751.627
     1331.897      8112.215    1724.575      1346.631      8111.948    1756.575
     1470.562      8193.165    1727.793      1490.229      8193.112    1761.437
     1608.708      8274.110    1730.424      1632.666      8274.274    1765.189
     1747.670      8355.057    1733.487      1779.521      8355.478    1772.743
     1883.123      8435.941    1731.608      1918.080      8436.567    1768.504
     2020.558      8516.825    1731.689      2065.122      8517.818    1772.034
     2157.743      8597.661    1731.077      2200.827      8598.834    1764.496
     2302.327      8678.683    1734.219      2349.751      8680.253    1766.315
     2452.808      8759.978    1737.795      2497.807      8761.786    1765.227
     2606.495      8841.586    1739.700      2649.396      8843.675    1764.016
     2748.497      8922.796    1732.700      2800.729      8925.867    1760.599
     2883.946      9003.651    1722.509      2946.699      9008.135    1753.606
     3008.129      9083.439    1710.625      3086.002      9090.477    1744.520
     3135.256      9162.627    1703.359      3219.803      9172.791    1740.071
     3272.627      9242.357    1703.373      3358.001      9255.882    1741.056
     3411.106      9321.775    1705.239      3492.835      9338.759    1743.137
     3545.522      9399.460    1703.779      3627.174      9421.601    1744.189
     3687.102      9478.211    1704.311      3756.931      9502.674    1742.849
     3827.569      9556.038    1706.550      3909.636      9592.654    1755.855
     3971.315      9634.727    1711.475      4042.162      9675.068    1758.051
     4113.163      9712.199    1715.988      4170.319      9753.153    1757.236
     4252.442      9787.807    1721.789      4316.329      9843.302    1771.401
     4397.902      9869.828    1734.827      4453.386      9926.216    1785.879
     4534.097      9943.566    1742.424      4576.518      9992.371    1792.413
     4668.313     10013.401    1751.594      4705.246     10062.243    1804.571
     4794.518     10077.849    1761.080      4902.146     10221.551    1909.999
     5010.933     10255.721    1893.999      5044.327     10295.538    1939.443
     5145.601     10324.999    1911.398      5179.019     10360.305    1952.297
     5271.774     10389.104    1915.624      5311.276     10427.473    1956.086
     5401.736     10459.286    1921.344      5446.553     10500.503    1960.110
     5535.236     10533.673    1926.613      5582.976     10576.110    1965.815
     5669.646     10609.259    1928.494      5715.348     10649.020    1969.925
     5813.437     10693.106    1935.159      5853.640     10727.462    1977.602
     5955.966     10775.844    1938.311      5991.146     10805.427    1980.398
     6100.266     10860.041    1942.741      6133.051     10887.230    1982.325