NOECHO

-- =============================================================================
-- 
-- Exported from Reek_base_sim
-- 
-- Exported by user akia from RMS11 at 2019-11-29 14:24:32
-- 
-- =============================================================================

MAPUNITS
'METRES  ' /

MAPAXES
456514.912 5939173.718
456514.912 5927115.548
467218.371 5927115.548 /

GRIDUNIT
'METRES  ' '        ' /

SPECGRID
  40  64  14   1  F  /

GDORIENT
INC INC INC DOWN RIGHT /

COORD
        0.000      8808.080    1732.805         0.119      8807.806    1783.497
      140.029      8889.119    1734.010       140.847      8888.845    1786.890
      279.946      8970.156    1736.990       281.702      8969.877    1790.153
      419.795      9051.169    1741.434       422.733      9050.922    1792.429
      559.468      9132.173    1744.163       563.951      9131.984    1792.433
      698.885      9213.166    1745.215       705.363      9213.062    1791.616
      838.364      9294.139    1746.986       846.872      9294.159    1789.899
      977.753      9375.096    1748.228       988.601      9375.281    1788.546
     1116.356      9456.012    1746.490      1130.417      9456.433    1787.968
     1254.947      9536.888    1744.361      1271.674      9537.600    1786.993
     1393.230      9617.700    1741.386      1411.314      9618.708    1782.974
     1531.658      9698.463    1739.438      1552.147      9699.893    1781.216
     1669.818      9779.136    1737.841      1693.513      9781.160    1779.496
     1808.171      9859.735    1738.496      1835.558      9862.563    1779.352
     1947.300      9940.318    1741.472      1977.657      9944.097    1780.276
     2086.831     10020.851    1745.340      2119.635     10025.772    1782.519
     2223.967     10100.834    1746.571      2256.294     10106.682    1780.608
     2361.338     10180.556    1747.506      2395.080     10187.894    1782.115
     2501.828     10260.728    1751.757      2539.198     10270.444    1789.596
     2643.085     10341.010    1757.874      2683.449     10353.466    1798.375
     2783.309     10420.862    1762.737      2825.834     10436.306    1805.062
     2923.057     10500.366    1765.399      2967.582     10519.166    1808.000
     3062.565     10579.581    1765.901      3108.884     10601.986    1809.574
     3203.036     10659.166    1765.629      3249.208     10684.354    1809.958
     3344.545     10739.389    1765.619      3387.028     10765.131    1808.410
     3483.050     10817.783    1764.005      3523.267     10844.497    1806.682
     3621.773     10896.183    1765.003      3660.433     10924.007    1808.203
     3762.156     10975.793    1769.810      3800.060     11005.023    1815.342
     3903.383     11056.250    1777.727      3938.377     11084.832    1823.755
     4043.799     11136.276    1789.972      4078.613     11166.025    1838.004
     4188.675     11220.453    1814.655      4225.088     11252.630    1863.102
     4334.000     11305.429    1839.397      4373.979     11341.556    1890.549
     4470.599     11382.694    1849.935      4513.618     11422.077    1906.052
     4614.982     11467.176    1870.991      4656.304     11505.250    1927.006
     4762.733     11554.857    1898.601      4799.083     11588.464    1947.851
     4905.061     11637.571    1914.711      4939.064     11669.100    1958.119
     5042.862     11716.088    1919.285      5074.540     11745.571    1958.716
     5182.092     11795.921    1921.630      5208.516     11820.632    1956.394
     5323.386     11877.679    1925.061      5346.969     11899.868    1959.334
     5464.481     11959.254    1928.888      5485.730     11979.397    1963.109
     5605.190     12040.462    1928.673      5623.695     12058.170    1962.932
       79.445      8670.446    1732.833        79.607      8670.161    1783.543
      219.492      8751.488    1734.050       220.377      8751.202    1786.929
      359.438      8832.521    1737.033       361.288      8832.238    1790.187
      499.343      8913.533    1741.458       502.398      8913.288    1792.441
      639.099      8994.536    1744.203       643.688      8994.356    1792.451
      778.640      9075.530    1745.268       785.163      9075.441    1791.630
      918.308      9156.509    1747.050       926.745      9156.544    1789.925
     1057.830      9237.478    1748.251      1068.579      9237.668    1788.565
     1196.513      9318.407    1746.524      1210.452      9318.826    1787.975
     1335.132      9399.297    1744.398      1351.651      9399.990    1786.987
     1473.452      9480.128    1741.457      1491.131      9481.090    1782.985
     1612.084      9560.927    1739.497      1631.996      9562.274    1781.223
     1750.715      9641.668    1737.915      1773.735      9643.567    1779.493
     1889.786      9722.382    1738.605      1916.157      9725.005    1779.356
     2029.831      9803.137    1741.628      2058.597      9806.584    1780.284
     2169.863      9883.839    1745.464      2200.729      9888.301    1782.523
     2307.472      9964.051    1746.698      2337.691      9969.327    1780.602
     2445.666     10044.135    1747.766      2477.042     10050.737    1782.250
     2586.990     10124.742    1752.108      2622.447     10133.688    1789.812
     2728.632     10205.428    1758.242      2768.387     10217.375    1798.637
     2869.224     10285.757    1763.026      2911.866     10300.895    1805.246
     3009.305     10365.791    1765.589      3053.269     10384.008    1808.134
     3148.936     10445.485    1765.984      3193.683     10466.803    1809.661
     3289.666     10525.632    1765.801      3333.354     10549.173    1810.031
     3431.365     10606.390    1765.625      3471.006     10630.174    1808.433
     3570.250     10685.470    1764.061      3607.470     10709.996    1806.803
     3708.690     10764.103    1765.241      3744.697     10789.851    1808.543
     3848.084     10843.341    1770.215      3883.546     10870.549    1815.754
     3987.860     10922.914    1778.092      4020.487     10949.452    1824.111
     4127.278     11002.291    1790.622      4159.232     11029.496    1838.372
     4271.004     11085.567    1815.292      4303.447     11114.133    1862.961
     4414.258     11168.727    1839.476      4449.690     11200.621    1889.804
     4550.374     11245.577    1849.975      4588.938     11280.724    1905.656
     4694.217     11329.548    1870.963      4731.089     11363.343    1926.276
     4840.811     11416.125    1898.320      4873.345     11446.010    1947.014
     4982.782     11498.487    1914.553      5014.562     11527.736    1957.927
     5121.362     11577.729    1919.280      5151.884     11605.904    1958.819
     5261.539     11658.443    1921.654      5287.391     11682.403    1956.580
     5403.539     11740.849    1925.113      5426.740     11762.469    1959.462
     5544.856     11822.626    1928.916      5566.112     11842.571    1963.207
     5685.286     11903.574    1928.700      5704.099     11921.384    1963.030
      158.889      8532.846    1731.272       159.091      8532.493    1780.099
      298.875      8613.889    1731.426       299.912      8613.546    1783.411
      438.734      8694.918    1733.842       440.893      8694.591    1786.436
      578.653      8775.912    1739.335       582.188      8775.643    1789.887
      718.292      8856.912    1741.271       723.443      8856.730    1788.495
      857.758      8937.898    1742.365       864.934      8937.824    1787.467
      997.129      9018.872    1743.111      1006.240      9018.927    1784.698
     1137.015      9099.841    1746.242      1147.938      9100.045    1783.690
     1275.391      9180.764    1744.343      1290.571      9181.213    1785.784
     1413.872      9261.652    1742.756      1432.325      9262.393    1786.116
     1551.857      9342.475    1739.769      1571.462      9343.476    1781.500
     1690.791      9423.300    1738.552      1713.001      9424.696    1780.979
     1829.300      9504.048    1736.466      1853.934      9505.923    1777.748
     1968.812      9584.820    1737.438      1997.084      9587.405    1778.711
     2108.230      9665.526    1739.283      2136.577      9668.644    1775.748
     2248.364      9746.249    1742.764      2280.168      9750.478    1779.703
     2385.142      9826.366    1742.593      2414.904      9831.167    1775.255
     2522.821      9906.355    1742.747      2553.617      9912.379    1776.010
     2664.542      9986.991    1746.898      2701.249      9995.657    1784.101
     2806.986     10067.830    1752.481      2849.086     10079.757    1792.430
     2948.389     10148.395    1756.953      2993.474     10163.619    1798.388
     3089.521     10228.845    1760.154      3134.213     10246.623    1801.290
     3228.830     10308.445    1760.446      3275.027     10329.759    1804.371
     3369.056     10388.327    1760.225      3413.796     10411.858    1804.922
     3510.750     10469.040    1760.627      3550.042     10492.198    1802.529
     3648.589     10547.432    1757.981      3686.139     10571.860    1800.736
     3786.403     10625.562    1758.759      3821.853     10650.686    1800.868
     3925.310     10704.341    1764.016      3962.490     10732.693    1810.870
     4066.334     10784.842    1775.195      4097.817     10810.338    1818.627
     4201.914     10860.959    1783.738      4234.945     10888.978    1832.352
     4348.694     10946.803    1813.739      4379.167     10973.518    1858.896
     4497.170     11034.614    1847.004      4529.995     11063.997    1894.685
     4626.792     11105.655    1849.037      4664.073     11139.387    1903.819
     4771.097     11190.013    1871.024      4806.992     11222.607    1924.869
     4922.803     11281.163    1905.316      4955.086     11310.471    1952.103
     5063.781     11362.585    1919.115      5094.496     11390.458    1959.478
     5197.924     11437.812    1917.603      5229.997     11466.938    1957.443
     5336.791     11517.322    1917.507      5362.555     11540.768    1950.543
     5479.647     11600.460    1921.164      5504.827     11623.458    1956.036
     5621.658     11682.836    1925.386      5644.848     11704.131    1959.619
     5762.258     11763.916    1925.154      5782.981     11783.090    1959.447
      238.347      8395.220    1732.209       238.576      8394.819    1776.539
      378.298      8476.280    1730.490       379.430      8475.889    1778.716
      518.059      8557.314    1731.474       520.487      8556.939    1781.906
      657.594      8638.323    1732.717       661.486      8638.030    1780.211
      797.150      8719.301    1735.921       802.556      8719.120    1778.553
      936.354      8800.275    1736.901       943.928      8800.207    1778.353
     1075.161      8881.232    1736.741      1086.123      8881.306    1780.931
     1214.762      8962.184    1740.179      1228.454      8962.436    1782.478
     1353.374      9043.102    1740.540      1371.162      9043.605    1784.479
     1493.916      9124.065    1744.572      1513.500      9124.801    1785.599
     1633.895      9205.005    1745.858      1657.823      9206.135    1790.474
     1773.479      9285.915    1745.312      1800.521      9287.472    1790.707
     1911.184      9366.672    1741.200      1937.177      9368.473    1780.502
     2048.230      9447.298    1738.106      2076.276      9449.626    1775.965
     2185.681      9527.839    1737.398      2215.626      9530.830    1773.568
     2325.188      9608.473    1739.561      2360.039      9612.691    1777.610
     2466.059      9689.208    1742.891      2502.829      9694.629    1780.586
     2603.751      9769.334    1742.428      2640.616      9775.960    1779.169
     2745.984      9850.164    1745.993      2789.371      9859.638    1785.703
     2886.355      9930.549    1747.921      2930.000      9942.083    1785.104
     3023.792     10009.857    1747.641      3072.419     10025.334    1788.134
     3164.840     10090.023    1750.099      3218.779     10110.491    1796.369
     3308.471     10171.280    1754.457      3360.204     10194.330    1801.440
     3452.396     10253.035    1758.745      3496.629     10275.765    1801.425
     3589.928     10331.527    1756.409      3635.221     10357.869    1802.980
     3728.928     10410.619    1756.357      3770.786     10437.697    1802.118
     3866.897     10488.881    1757.996      3905.374     10516.140    1801.662
     4006.814     10568.474    1765.528      4045.139     10597.794    1811.573
     4145.412     10647.107    1775.599      4182.519     10677.346    1824.098
     4290.086     10731.001    1798.977      4327.311     10762.764    1851.117
     4437.394     10817.648    1830.772      4466.746     10843.453    1873.218
     4575.854     10896.705    1850.538      4606.262     10923.908    1894.533
     4710.028     10971.890    1860.320      4744.152     11002.653    1909.863
     4861.388     11062.613    1892.926      4889.937     11088.363    1934.086
     5008.353     11149.373    1918.068      5040.269     11178.086    1960.723
     5140.627     11222.940    1918.725      5175.080     11253.840    1960.595
     5273.402     11297.007    1915.219      5308.127     11328.086    1955.564
     5413.499     11377.640    1915.950      5442.283     11403.386    1950.559
     5557.033     11461.345    1919.855      5582.961     11484.564    1953.232
     5699.916     11544.466    1924.760      5724.141     11566.233    1957.464
     5840.587     11625.599    1924.492      5862.322     11645.245    1957.263
      317.808      8257.591    1731.881       318.053      8257.161    1771.252
      457.860      8338.620    1734.083       459.081      8338.186    1778.622
      597.603      8419.675    1732.857       600.150      8419.276    1778.174
      736.976      8500.701    1731.773       741.246      8500.379    1776.374
      876.138      8581.688    1732.268       882.892      8581.466    1778.083
     1015.242      8662.652    1733.873      1024.459      8662.572    1777.650
     1154.227      8743.604    1735.406      1165.312      8743.676    1774.777
     1292.145      8824.526    1734.439      1307.938      8824.801    1778.127
     1431.896      8905.465    1738.936      1453.456      8906.032    1786.755
     1571.818      8986.406    1742.366      1596.068      8987.242    1787.238
     1712.358      9067.366    1745.149      1738.677      9068.494    1787.594
     1853.855      9148.377    1747.777      1882.026      9149.839    1788.575
     1993.036      9229.264    1746.138      2022.906      9231.120    1785.777
     2129.518      9309.918    1742.222      2161.330      9312.281    1781.060
     2263.409      9390.219    1736.932      2295.846      9393.119    1773.504
     2401.603      9470.720    1736.775      2441.655      9475.069    1777.088
     2539.879      9551.068    1736.386      2583.815      9556.903    1776.628
     2683.922      9632.150    1740.702      2737.036      9640.787    1786.286
     2824.496      9712.692    1741.622      2873.051      9722.344    1779.784
     2958.032      9791.421    1737.274      3004.984      9802.819    1771.780
     3097.151      9870.915    1737.283      3151.627      9887.034    1777.218
     3237.150      9950.323    1737.940      3295.640      9971.267    1783.608
     3383.424     10032.121    1744.081      3439.035     10055.894    1791.374
     3529.860     10114.697    1751.177      3578.945     10139.295    1796.007
     3671.501     10195.363    1754.231      3722.885     10224.937    1804.313
     3811.334     10275.063    1756.717      3857.941     10305.249    1804.994
     3948.267     10352.700    1758.414      3990.570     10382.946    1803.489
     4086.790     10431.268    1765.658      4127.066     10462.562    1811.019
     4226.047     10510.421    1778.672      4265.016     10542.845    1825.993
     4381.695     10604.067    1817.808      4421.450     10638.742    1869.046
     4524.760     10687.420    1845.378      4556.786     10716.006    1889.847
     4650.001     10754.687    1848.184      4684.180     10785.519    1896.764
     4793.200     10838.045    1872.931      4823.657     10865.541    1915.473
     4949.944     10933.584    1912.051      4975.342     10956.416    1945.896
     5086.586     11011.000    1920.870      5116.797     11038.003    1957.317
     5213.056     11079.433    1914.256      5249.851     11112.126    1954.799
     5350.593     11157.802    1915.474      5387.601     11190.514    1955.232
     5495.640     11242.813    1920.927      5528.325     11271.593    1957.902
     5637.670     11325.152    1922.763      5663.815     11348.128    1954.461
     5779.625     11407.418    1926.146      5804.442     11429.244    1957.269
     5920.316     11488.567    1925.937      5942.659     11508.291    1957.149
      397.244      8120.004    1726.979       397.528      8119.506    1765.954
      537.278      8201.007    1731.091       538.601      8200.533    1772.931
      677.123      8282.037    1732.426       679.689      8281.634    1771.956
      816.587      8363.061    1732.160       820.985      8362.731    1772.003
      955.387      8444.068    1730.373       963.085      8443.814    1775.801
     1093.706      8525.035    1729.442      1104.255      8524.941    1773.306
     1232.581      8605.976    1732.009      1245.548      8606.051    1772.897
     1370.403      8686.894    1732.039      1387.719      8687.168    1775.091
     1509.044      8767.805    1735.063      1533.368      8768.385    1783.677
     1648.081      8848.711    1738.154      1676.135      8849.580    1784.375
     1788.125      8929.637    1741.129      1818.552      8930.798    1783.942
     1928.763      9010.581    1743.189      1962.849      9012.146    1785.855
     2069.675      9091.536    1744.501      2105.921      9093.523    1786.313
     2207.107      9172.263    1741.992      2243.876      9174.672    1781.976
     2343.361      9252.811    1738.877      2378.871      9255.608    1775.729
     2476.773      9332.927    1732.736      2521.568      9337.214    1773.468
     2616.030      9413.383    1731.905      2665.172      9419.151    1771.223
     2762.163      9494.676    1736.122      2820.122      9503.042    1777.661
     2900.927      9574.914    1734.770      2955.160      9584.523    1769.864
     3029.635      9652.672    1727.408      3089.675      9665.808    1764.219
     3171.767      9732.649    1728.329      3236.379      9750.147    1768.999
     3313.658      9812.404    1729.427      3376.716      9833.438    1773.233
     3458.564      9893.249    1733.848      3522.055      9919.048    1783.424
     3602.364      9974.005    1738.800      3656.641     10000.409    1784.830
     3744.729     10054.391    1742.993      3799.676     10085.712    1792.896
     3889.771     10136.867    1751.133      3940.391     10169.891    1799.884
     4030.330     10216.920    1757.787      4076.715     10250.766    1803.851
     4170.840     10297.115    1768.712      4213.855     10331.571    1814.247
     4313.268     10379.196    1787.542      4360.242     10419.763    1841.812
     4453.803     10460.062    1810.007      4510.801     10511.830    1878.510
     4602.607     10548.873    1844.574      4639.136     10582.675    1893.711
     4734.461     10621.943    1858.482      4769.609     10654.485    1907.431
     4886.488     10713.473    1897.028      4918.217     10742.458    1939.213
     5032.887     10799.573    1920.970      5061.685     10825.508    1955.984
     5157.421     10866.090    1914.964      5190.376     10895.437    1950.695
     5286.127     10936.596    1911.342      5324.093     10970.085    1949.220
     5428.751     11019.477    1916.730      5467.552     11053.415    1955.509
     5573.641     11104.310    1920.921      5605.268     11131.770    1955.163
     5713.423     11184.693    1919.600      5742.240     11209.576    1953.359
     5857.824     11269.053    1925.479      5883.562     11291.218    1956.263
     5998.612     11350.284    1925.165      6021.899     11370.358    1956.116
      476.672      7982.430    1721.451       476.989      7981.875    1759.302
      616.573      8063.437    1724.278       618.043      8062.911    1764.872
      756.511      8144.419    1729.071       759.448      8143.960    1768.696
      896.099      8225.429    1730.542       901.434      8225.030    1773.180
     1034.857      8306.440    1729.216      1043.310      8306.162    1773.334
     1173.536      8387.409    1730.546      1185.571      8387.294    1774.923
     1311.332      8468.355    1730.243      1325.654      8468.421    1770.756
     1450.093      8549.289    1733.185      1471.769      8549.593    1781.969
     1588.421      8630.207    1735.886      1615.327      8630.774    1784.875
     1727.088      8711.118    1738.739      1755.811      8711.899    1781.764
     1864.598      8791.971    1738.788      1898.295      8793.089    1781.217
     2003.297      8872.826    1739.215      2042.304      8874.379    1782.317
     2142.692      8953.678    1739.323      2183.365      8955.607    1780.664
     2284.353      9034.623    1740.824      2326.669      9037.018    1781.506
     2423.482      9115.404    1739.185      2470.875      9118.626    1782.271
     2560.355      9195.944    1734.293      2613.802      9200.352    1777.065
     2694.995      9276.091    1727.797      2752.476      9281.929    1767.785
     2834.968      9356.571    1726.419      2896.550      9364.320    1762.897
     2973.400      9436.679    1724.662      3041.529      9447.215    1759.895
     3108.483      9515.757    1721.271      3183.044      9530.155    1758.828
     3251.514      9595.935    1722.101      3320.863      9612.825    1759.067
     3391.306      9675.049    1721.597      3466.766      9698.143    1767.376
     3533.824      9754.681    1723.768      3602.401      9780.835    1771.832
     3672.560      9832.501    1724.817      3737.170      9862.751    1774.822
     3818.551      9913.828    1731.861      3884.406      9950.896    1786.918
     3965.238      9996.633    1741.110      4018.462     10031.737    1788.485
     4104.804     10075.382    1747.570      4156.172     10114.053    1795.228
     4249.677     10158.660    1763.411      4299.862     10200.855    1813.995
     4398.329     10246.484    1789.796      4444.252     10288.539    1842.168
     4526.633     10316.034    1798.737      4596.482     10383.475    1882.472
     4690.541     10420.285    1852.832      4721.531     10450.776    1893.522
     4830.447     10500.736    1879.551      4861.192     10530.595    1921.344
     4980.632     10590.357    1915.829      5009.981     10617.883    1953.085
     5112.763     10662.940    1922.301      5146.486     10693.583    1960.130
     5235.879     10728.017    1916.102      5273.098     10761.131    1952.714
     5365.355     10799.230    1913.709      5403.024     10832.256    1948.167
     5506.803     10881.076    1917.349      5539.890     10909.742    1948.673
     5649.646     10964.123    1918.708      5676.140     10986.827    1946.745
     5789.430     11044.549    1916.648      5816.220     11067.292    1947.754
     5936.131     11130.812    1924.971      5960.904     11151.713    1953.891
     6077.028     11212.141    1924.537      6099.484     11231.042    1953.604
      556.099      7844.859    1715.727       556.424      7844.291    1750.499
      695.910      7925.847    1718.961       697.430      7925.313    1755.730
      835.728      8006.826    1723.272       838.696      8006.370    1758.668
      975.146      8087.830    1724.830       980.700      8087.420    1764.522
     1114.479      8168.809    1728.073      1123.260      8168.518    1769.132
     1253.739      8249.780    1731.956      1265.290      8249.658    1769.977
     1392.929      8330.749    1735.672      1409.983      8330.798    1778.902
     1530.425      8411.696    1735.234      1554.187      8411.970    1783.690
     1666.979      8492.603    1734.762      1694.636      8493.092    1781.304
     1804.619      8573.504    1736.524      1833.890      8574.168    1777.440
     1943.286      8654.408    1738.661      1979.822      8655.415    1781.183
     2080.333      8735.231    1737.747      2120.758      8736.565    1778.504
     2218.996      8816.061    1737.242      2267.672      8817.980    1782.090
     2360.961      8897.000    1737.962      2410.829      8899.355    1780.784
     2504.754      8978.054    1737.947      2563.145      8981.368    1784.019
     2647.392      9059.093    1734.677      2699.625      9062.684    1771.316
     2777.153      9139.103    1722.734      2836.375      9144.122    1758.948
     2911.224      9219.089    1716.951      2982.707      9226.717    1752.594
     3042.789      9298.329    1711.961      3125.078      9309.260    1746.904
     3185.132      9378.501    1711.726      3270.266      9392.755    1748.273
     3331.229      9459.231    1714.420      3410.038      9476.148    1750.430
     3468.593      9537.777    1713.400      3552.066      9560.752    1757.401
     3608.182      9616.143    1713.843      3685.135      9643.170    1761.535
     3749.013      9694.339    1716.524      3822.222      9726.765    1767.439
     3894.379      9774.582    1722.396      3966.879      9814.413    1777.801
     4038.440      9854.806    1728.319      4096.724      9893.560    1776.692
     4175.609      9930.515    1732.628      4231.165      9973.979    1781.514
     4320.861     10012.972    1747.777      4374.736     10061.304    1800.622
     4460.819     10091.894    1762.210      4505.846     10136.627    1814.000
     4596.092     10166.781    1777.189      4684.086     10260.346    1887.136
     4722.786     10233.327    1783.314      4817.081     10335.611    1906.406
     4930.234     10386.000    1899.932      4962.261     10419.450    1943.007
     5067.729     10461.705    1919.827      5095.828     10489.179    1954.510
     5189.107     10523.189    1915.734      5224.163     10555.613    1952.802
     5313.733     10589.400    1913.726      5352.128     10623.631    1948.689
     5449.551     10666.197    1918.208      5483.495     10695.764    1947.320
     5587.917     10745.333    1919.827      5617.587     10770.760    1947.113
     5729.609     10827.363    1920.477      5756.634     10850.191    1948.957
     5874.395     10911.976    1923.956      5899.294     10932.739    1953.070
     6019.131     10996.483    1929.897      6042.933     11016.137    1957.404
     6159.956     11077.740    1929.568      6181.545     11095.464    1957.237
      635.564      7707.222    1714.305       635.857      7706.709    1743.221
      775.219      7788.264    1713.766       776.716      7787.752    1745.962
      914.917      7869.233    1717.694       917.812      7868.800    1748.565
     1054.309      7950.221    1720.099      1059.634      7949.835    1754.345
     1193.196      8031.209    1722.457      1201.687      8030.924    1758.161
     1332.021      8112.173    1726.600      1343.767      8112.034    1761.118
     1471.670      8193.134    1732.679      1489.482      8193.148    1772.765
     1610.896      8274.104    1736.513      1633.932      8274.298    1779.113
     1747.349      8355.039    1735.716      1775.247      8355.415    1779.805
     1884.874      8435.970    1736.912      1914.455      8436.479    1776.279
     2022.370      8516.879    1737.573      2060.810      8517.680    1780.064
     2159.077      8597.732    1736.660      2202.888      8598.835    1778.336
     2297.864      8678.595    1736.096      2345.430      8680.045    1777.069
     2440.984      8759.575    1736.341      2492.265      8761.476    1776.649
     2587.280      8840.725    1735.020      2647.601      8843.444    1777.431
     2725.814      8921.562    1725.807      2787.857      8924.954    1764.419
     2864.674      9002.401    1717.115      2933.764      9006.988    1754.441
     2996.231      9082.578    1708.093      3075.025      9089.147    1742.829
     3132.092      9162.616    1703.330      3215.395      9171.745    1737.512
     3279.648      9243.886    1706.434      3363.691      9255.844    1739.731
     3416.855      9323.606    1707.325      3499.222      9338.857    1741.226
     3546.014      9400.743    1704.911      3626.186      9420.126    1742.534
     3691.426      9480.922    1710.086      3770.737      9505.909    1753.626
     3831.991      9559.370    1713.414      3912.202      9591.933    1762.969
     3972.185      9636.842    1715.209      4042.960      9673.834    1764.051
     4115.435      9715.556    1718.893      4175.545      9755.429    1765.693
     4252.853      9790.217    1722.576      4306.738      9833.999    1768.263
     4397.444      9871.114    1735.198      4447.272      9919.040    1783.792
     4538.489      9950.038    1747.878      4575.992      9991.300    1792.325
     4673.900     10022.274    1758.375      4708.921     10066.656    1806.861
     4799.853     10086.420    1765.235      4897.695     10213.326    1899.981
     5006.970     10250.271    1885.851      5036.012     10283.971    1925.638
     5142.371     10321.286    1904.240      5177.558     10357.383    1947.215
     5267.873     10385.608    1907.746      5304.245     10419.907    1944.719
     5395.838     10454.541    1911.771      5427.122     10482.473    1938.800
     5530.408     10530.210    1917.065      5560.842     10556.467    1942.133
     5667.416     10608.207    1919.243      5698.944     10634.824    1947.961
     5816.927     10696.707    1929.510      5843.820     10719.009    1957.839
     5961.986     10781.370    1934.409      5985.438     10800.515    1961.824
     6104.956     10864.291    1937.676      6128.089     10882.936    1964.226