NOECHO

-- =============================================================================
-- 
-- Exported from Reek_base_sim
-- 
-- Exported by user asny from RMS11 at 2020-02-19 16:55:36
-- 
-- =============================================================================

MAPUNITS
'METRES  ' /

MAPAXES
456514.876 5939174.254
456514.876 5927115.548
467217.825 5927115.548 /

GRIDUNIT
'METRES  ' '        ' /

SPECGRID
  40  64  14   1  F  /

GDORIENT
INC INC INC DOWN RIGHT /

COORD
        0.000      8808.136    1731.990         0.196      8807.732    1768.738
      140.020      8889.180    1732.540       140.908      8888.797    1767.149
      279.963      8970.208    1734.774       281.754      8969.828    1768.341
      419.843      9051.216    1738.949       423.157      9050.824    1774.655
      559.551      9132.220    1741.925       564.607      9131.885    1777.236
      699.083      9213.216    1743.563       706.209      9212.969    1778.067
      838.562      9294.196    1745.063       847.925      9294.076    1777.820
      978.088      9375.160    1746.443       989.797      9375.212    1778.329
     1117.042      9456.097    1745.285      1130.737      9456.367    1777.172
     1255.033      9536.965    1741.636      1273.461      9537.601    1780.283
     1393.240      9617.775    1738.700      1416.018      9618.908    1782.012
     1531.336      9698.506    1736.181      1556.512      9700.171    1778.359
     1670.094      9779.206    1735.662      1697.575      9781.519    1775.397
     1808.628      9859.804    1734.920      1834.878      9862.550    1768.389
     1946.129      9940.156    1734.140      1970.621      9943.306    1762.439
     2085.607     10020.608    1737.690      2111.653     10024.704    1765.364
     2223.804     10100.681    1740.987      2256.458     10106.938    1773.889
     2362.054     10180.500    1744.360      2401.031     10189.543    1783.475
     2502.349     10260.584    1750.034      2544.219     10272.236    1792.646
     2644.046     10340.989    1757.679      2686.853     10355.125    1799.490
     2783.828     10420.652    1761.906      2829.428     10438.315    1803.866
     2923.499     10500.072    1764.066      2971.751     10521.681    1808.240
     3063.278     10579.371    1764.315      3112.128     10604.255    1809.902
     3203.668     10658.904    1763.276      3249.126     10684.826    1806.249
     3343.803     10738.280    1761.315      3384.290     10763.755    1800.317
     3483.125     10817.092    1759.688      3517.371     10840.595    1794.010
     3621.851     10895.403    1760.356      3652.365     10918.015    1792.793
     3761.805     10974.624    1765.248      3791.142     10997.857    1799.043
     3902.949     11054.970    1774.644      3930.811     11078.294    1809.678
     4043.249     11134.849    1787.993      4074.630     11162.301    1829.512
     4186.805     11217.904    1811.719      4226.122     11253.416    1862.437
     4331.808     11302.666    1836.861      4379.630     11346.738    1896.441
     4468.947     11380.388    1849.101      4520.822     11428.696    1913.913
     4613.258     11464.909    1870.868      4661.917     11510.398    1932.413
     4761.147     11552.859    1899.378      4802.895     11591.928    1951.545
     4904.098     11636.218    1916.985      4942.568     11672.252    1961.613
     5042.170     11715.016    1921.935      5079.066     11749.652    1963.736
     5181.023     11794.542    1922.863      5213.147     11824.795    1962.346
     5321.844     11875.912    1924.658      5349.001     11901.604    1962.455
     5463.038     11957.633    1928.731      5486.591     11980.046    1965.116
     5603.712     12038.856    1928.500      5624.418     12058.706    1964.994
       79.452      8670.497    1732.013        79.685      8670.090    1768.743
      219.498      8751.542    1732.563       220.422      8751.157    1767.168
      359.491      8832.564    1734.817       361.316      8832.188    1768.395
      499.428      8913.571    1738.983       502.793      8913.187    1774.668
      639.229      8994.576    1741.958       644.333      8994.252    1777.251
      778.900      9075.574    1743.597       786.013      9075.344    1778.077
      918.493      9156.561    1745.112       927.733      9156.457    1777.851
     1057.985      9237.535    1746.463      1069.458      9237.595    1778.332
     1197.003      9318.481    1745.294      1210.236      9318.743    1777.187
     1335.166      9399.368    1741.680      1352.827      9399.966    1780.283
     1473.522      9480.203    1738.745      1495.358      9481.258    1782.014
     1611.861      9560.975    1736.258      1635.914      9562.511    1778.358
     1751.086      9641.746    1735.714      1777.344      9643.872    1775.400
     1890.381      9722.468    1734.974      1915.301      9724.971    1768.346
     2028.872      9803.023    1734.326      2051.855      9805.860    1762.467
     2168.978      9883.685    1737.842      2193.446      9887.383    1765.477
     2307.555      9963.994    1741.174      2338.623      9969.729    1774.045
     2446.344     10044.142    1744.629      2483.814     10052.544    1783.650
     2587.245     10124.632    1750.429      2628.191     10135.686    1792.910
     2729.359     10205.458    1757.973      2771.837     10219.117    1799.623
     2869.798     10285.720    1762.168      2914.956     10302.823    1804.074
     3009.816     10365.691    1764.234      3056.940     10386.409    1808.430
     3149.839     10445.533    1764.416      3196.402     10468.901    1809.926
     3290.465     10525.616    1763.304      3332.837     10549.495    1806.191
     3431.203     10605.787    1761.273      3468.801     10629.226    1800.153
     3571.115     10685.452    1759.729      3602.940     10707.132    1793.974
     3709.398     10763.907    1760.569      3738.035     10784.999    1793.089
     3848.175     10842.609    1765.714      3875.718     10864.316    1799.566
     3987.767     10921.975    1775.092      4013.665     10943.569    1810.166
     4126.767     11000.927    1788.630      4155.446     11025.935    1829.936
     4269.011     11082.915    1812.299      4303.889     11114.325    1862.040
     4412.065     11165.926    1836.977      4454.359     11204.783    1895.354
     4548.782     11243.280    1849.139      4595.492     11286.616    1913.387
     4692.791     11327.509    1870.894      4736.750     11368.412    1931.768
     4839.547     11414.370    1899.156      4877.366     11449.553    1950.689
     4981.777     11497.042    1916.803      5018.282     11530.992    1961.410
     5120.621     11576.569    1921.923      5156.532     11610.011    1963.805
     5260.750     11657.296    1922.880      5292.265     11686.717    1962.480
     5402.637     11739.667    1924.722      5429.226     11764.583    1962.638
     5544.073     11821.621    1928.759      5567.346     11843.542    1965.264
     5684.146     11902.285    1928.524      5705.106     11922.162    1965.137
      158.898      8532.893    1730.748       159.185      8532.392    1768.741
      298.909      8613.936    1731.268       299.969      8613.493    1766.207
      438.737      8694.978    1731.807       440.743      8694.573    1764.215
      578.713      8775.960    1737.088       582.604      8775.533    1773.851
      718.509      8856.955    1740.167       724.327      8856.610    1776.392
      858.060      8937.951    1741.624       865.670      8937.728    1775.056
      997.268      9018.936    1742.472      1006.207      9018.854    1771.533
     1137.151      9099.904    1745.578      1149.950      9099.982    1778.668
     1276.188      9180.853    1745.011      1288.895      9181.099    1773.633
     1414.083      9261.736    1741.162      1432.613      9262.329    1778.950
     1552.242      9342.571    1737.965      1576.248      9343.650    1782.359
     1689.698      9423.302    1734.052      1715.429      9424.816    1776.492
     1829.423      9504.108    1734.093      1857.778      9506.210    1774.723
     1968.449      9584.816    1732.535      1992.872      9587.054    1763.932
     2106.559      9665.342    1731.085      2128.667      9667.830    1757.415
     2248.568      9746.254    1736.502      2272.080      9749.501    1762.328
     2385.826      9826.400    1738.101      2417.865      9831.836    1770.621
     2524.164      9906.472    1740.680      2564.712      9914.894    1780.311
     2664.963      9986.890    1745.521      2709.883      9998.219    1788.294
     2808.062     10067.925    1752.549      2850.835     10080.891    1791.137
     2948.476     10148.155    1755.839      2993.131     10164.248    1794.790
     3089.390     10228.463    1758.159      3136.310     10248.281    1800.357
     3229.736     10308.452    1758.480      3278.648     10332.258    1805.168
     3370.512     10388.603    1757.755      3412.445     10411.712    1799.613
     3510.725     10468.445    1755.665      3550.307     10492.734    1795.956
     3650.582     10548.049    1754.552      3681.328     10568.765    1786.912
     3787.039     10625.167    1753.996      3815.106     10645.678    1785.210
     3924.944     10703.098    1759.110      3953.351     10725.358    1793.495
     4066.723     10784.170    1772.805      4089.880     10803.401    1803.970
     4202.061     10859.946    1782.860      4230.226     10884.431    1823.576
     4345.872     10943.244    1809.974      4379.075     10973.058    1858.246
     4495.004     11031.787    1844.791      4535.970     11069.276    1902.637
     4625.044     11103.037    1848.531      4670.818     11145.264    1912.256
     4768.687     11186.914    1870.035      4812.281     11227.152    1929.858
     4921.964     11279.729    1906.121      4961.751     11316.346    1957.717
     5064.133     11362.307    1922.707      5097.960     11393.353    1961.972
     5197.478     11436.811    1921.298      5233.336     11469.678    1960.782
     5336.489     11516.521    1920.161      5369.184     11546.498    1958.459
     5478.314     11598.809    1920.822      5505.732     11623.994    1956.847
     5620.305     11681.250    1925.018      5644.770     11703.799    1959.696
     5760.485     11762.009    1924.782      5782.715     11782.610    1959.548
      238.361      8395.258    1731.182       238.686      8394.693    1767.994
      378.312      8476.335    1729.578       379.516      8475.822    1764.762
      518.132      8557.365    1731.168       520.555      8556.873    1765.780
      658.130      8638.336    1736.387       662.238      8637.892    1770.937
      797.600      8719.347    1737.559       804.104      8718.974    1773.777
      936.462      8800.351    1737.225       944.095      8800.140    1767.185
     1075.250      8881.321    1738.338      1086.262      8881.229    1770.578
     1215.154      8962.272    1742.414      1228.274      8962.350    1773.406
     1354.560      9043.215    1743.604      1370.296      9043.498    1775.842
     1494.102      9124.147    1743.594      1515.118      9124.762    1782.104
     1634.175      9205.083    1743.561      1657.866      9206.048    1782.823
     1772.269      9285.906    1740.130      1800.310      9287.392    1782.059
     1908.651      9366.552    1734.849      1937.342      9368.461    1772.422
     2047.615      9447.281    1732.890      2075.298      9449.552    1765.959
     2188.518      9528.130    1734.401      2211.417      9530.441    1760.104
     2328.610      9608.867    1737.281      2352.020      9611.780    1761.294
     2465.859      9689.108    1737.996      2501.488      9694.588    1771.229
     2604.307      9769.294    1739.784      2654.542      9778.834    1783.761
     2746.729      9850.152    1744.682      2795.715      9861.558    1785.664
     2885.473      9930.049    1746.130      2925.534      9941.380    1778.151
     3024.637     10009.754    1747.101      3062.117     10022.507    1776.849
     3165.790     10089.937    1748.748      3211.625     10108.446    1787.245
     3310.851     10171.908    1753.162      3360.867     10195.485    1798.587
     3453.577     10253.166    1755.008      3494.793     10275.428    1794.293
     3591.684     10331.905    1752.250      3631.013     10355.794    1790.301
     3732.126     10411.945    1753.341      3767.548     10435.737    1788.486
     3868.299     10488.945    1753.995      3901.979     10513.587    1789.415
     4006.763     10567.396    1761.262      4038.747     10592.561    1798.311
     4146.157     10646.595    1773.954      4170.611     10667.042    1805.627
     4290.729     10730.468    1799.015      4317.714     10754.094    1836.845
     4434.833     10814.380    1827.890      4465.892     10842.390    1872.403
     4572.655     10892.780    1847.587      4608.256     10925.390    1897.584
     4707.372     10968.369    1858.963      4746.250     11004.146    1912.072
     4857.400     11058.114    1889.081      4892.614     11090.437    1935.227
     5006.272     11146.772    1916.815      5039.722     11177.307    1956.343
     5137.594     11219.442    1919.336      5173.420     11251.963    1957.217
     5274.618     11297.369    1921.838      5314.461     11333.383    1961.935
     5417.918     11380.981    1925.015      5446.799     11407.021    1955.804
     5556.928     11460.726    1922.409      5583.544     11484.706    1953.991
     5698.512     11542.781    1925.536      5725.009     11566.685    1959.064
     5838.827     11623.680    1925.340      5862.851     11645.429    1958.854
      317.856      8257.568    1733.769       318.174      8257.013    1765.636
      457.970      8338.623    1734.139       459.288      8338.056    1768.591
      597.920      8419.670    1734.874       600.417      8419.163    1766.657
      737.224      8500.746    1732.801       741.551      8500.284    1765.272
      876.368      8581.758    1733.625       883.634      8581.349    1769.706
     1015.245      8662.741    1735.002      1024.022      8662.505    1765.613
     1154.558      8743.699    1738.521      1165.934      8743.603    1768.304
     1292.688      8824.645    1738.983      1307.097      8824.716    1769.699
     1432.400      8905.578    1741.726      1454.049      8905.923    1781.370
     1571.327      8986.486    1741.310      1595.433      8987.112    1780.016
     1712.463      9067.446    1743.015      1740.202      9068.444    1782.816
     1855.075      9148.487    1745.700      1884.975      9149.881    1784.381
     1992.576      9229.278    1741.597      2024.802      9231.161    1778.755
     2128.363      9309.866    1736.008      2162.649      9312.339    1772.634
     2266.998      9390.547    1734.895      2299.745      9393.459    1768.107
     2406.584      9471.233    1736.479      2437.940      9474.684    1765.493
     2544.723      9551.633    1736.793      2583.642      9556.966    1769.019
     2683.570      9631.941    1737.654      2733.232      9640.417    1775.444
     2825.480      9712.679    1740.537      2882.329      9724.702    1781.310
     2960.867      9791.736    1738.256      3012.103      9805.067    1773.652
     3098.434      9870.749    1736.704      3144.713      9885.441    1769.280
     3239.238      9950.402    1736.891      3286.574      9968.524    1773.149
     3385.779     10032.484    1741.880      3433.167     10054.024    1781.942
     3532.915     10115.643    1748.130      3580.466     10140.821    1790.381
     3673.053     10195.537    1748.930      3717.157     10222.175    1788.665
     3815.180     10276.769    1753.544      3859.310     10306.556    1794.213
     3952.445     10354.724    1757.389      3991.863     10383.912    1796.011
     4090.696     10433.215    1766.493      4124.861     10460.574    1803.670
     4226.684     10509.679    1777.625      4255.139     10534.039    1812.172
     4379.908     10601.500    1815.755      4418.227     10635.895    1865.680
     4522.210     10684.177    1843.627      4557.789     10716.834    1892.769
     4648.568     10752.104    1849.044      4686.578     10787.267    1901.351
     4791.343     10835.183    1873.394      4828.457     10869.409    1921.875
     4947.389     10930.421    1909.949      4979.242     10959.575    1948.379
     5085.000     11008.713    1921.256      5117.987     11038.646    1956.282
     5211.045     11076.674    1917.632      5246.905     11108.942    1951.569
     5349.694     11156.123    1920.990      5386.675     11189.153    1954.651
     5496.055     11242.452    1926.402      5530.021     11272.612    1959.466
     5634.766     11321.969    1923.507      5671.250     11354.240    1962.984
     5777.682     11405.202    1927.469      5810.023     11433.765    1964.476
     5918.098     11486.210    1927.227      5947.534     11512.241    1964.437
      397.297      8119.974    1729.960       397.606      8119.434    1757.953
      537.509      8200.959    1734.137       538.790      8200.409    1764.332
      677.533      8282.008    1734.857       679.969      8281.518    1762.745
      817.179      8363.064    1734.807       821.415      8362.618    1763.356
      955.781      8444.133    1732.712       962.591      8443.754    1762.978
     1094.228      8525.131    1733.418      1103.934      8524.870    1763.542
     1232.944      8606.088    1736.199      1245.571      8605.976    1765.783
     1372.040      8687.032    1739.541      1389.560      8687.095    1773.130
     1509.458      8767.944    1738.823      1535.092      8768.289    1780.522
     1650.104      8848.883    1741.593      1681.188      8849.572    1784.820
     1789.205      8929.779    1740.597      1821.337      8930.769    1779.831
     1933.208      9010.842    1744.503      1969.014      9012.272    1783.722
     2072.175      9091.717    1742.428      2106.705      9093.448    1776.734
     2210.113      9172.488    1739.602      2245.384      9174.678    1772.364
     2348.874      9253.247    1738.292      2386.917      9256.166    1771.943
     2487.021      9333.875    1737.029      2526.086      9337.596    1768.634
     2623.350      9414.153    1734.161      2669.586      9419.672    1767.380
     2762.600      9494.571    1733.938      2818.355      9502.936    1770.133
     2898.004      9574.079    1731.506      2962.838      9586.260    1770.799
     3030.718      9652.333    1727.016      3097.979      9668.138    1766.762
     3175.896      9733.107    1728.855      3232.367      9749.602    1763.701
     3314.913      9811.956    1726.855      3365.757      9830.212    1761.802
     3458.156      9892.111    1728.499      3512.488      9915.765    1770.441
     3607.309      9975.537    1736.591      3659.155     10002.390    1778.951
     3750.525     10056.762    1741.538      3801.097     10087.229    1783.595
     3893.366     10138.230    1748.445      3948.055     10175.640    1795.188
     4033.926     10218.464    1757.068      4083.379     10256.028    1802.054
     4173.933     10298.417    1769.618      4215.196     10332.671    1811.626
     4311.719     10376.523    1785.049      4352.526     10413.003    1831.993
     4451.010     10456.109    1808.037      4510.192     10511.753    1879.911
     4597.812     10543.238    1841.321      4640.949     10584.471    1898.794
     4730.281     10616.684    1856.959      4770.644     10655.095    1911.119
     4883.233     10709.421    1895.902      4919.668     10743.434    1940.918
     5032.475     10798.281    1922.175      5068.751     10831.535    1962.035
     5157.134     10864.729    1918.711      5194.155     10898.193    1954.060
     5287.451     10936.630    1918.964      5327.759     10972.640    1953.358
     5427.181     11017.079    1922.333      5468.596     11053.692    1957.021
     5570.844     11101.007    1924.648      5608.822     11134.274    1959.321
     5712.855     11183.465    1924.812      5750.575     11216.260    1963.154
     5856.745     11267.526    1929.091      5890.714     11296.919    1965.172
     5997.396     11348.760    1928.842      6028.208     11375.380    1965.093
      476.699      7982.447    1723.043       476.993      7981.933    1747.610
      616.789      8063.404    1727.832       618.032      8062.877    1754.559
      756.681      8144.440    1728.960       759.218      8143.938    1755.451
      896.714      8225.428    1732.644       901.144      8224.969    1759.875
     1035.475      8306.493    1732.057      1042.756      8306.094    1761.118
     1174.650      8387.482    1735.385      1186.343      8387.168    1767.885
     1311.960      8468.477    1735.054      1326.487      8468.335    1765.709
     1450.327      8549.423    1737.606      1470.843      8549.461    1773.073
     1588.468      8630.349    1738.751      1614.230      8630.622    1775.970
     1727.207      8711.261    1739.098      1761.919      8711.887    1781.013
     1864.226      8792.105    1736.414      1900.452      8793.019    1774.243
     2006.819      8873.070    1738.840      2048.257      8874.438    1777.606
     2149.797      8954.075    1740.832      2189.717      8955.741    1775.076
     2293.903      9035.174    1743.057      2335.958      9037.362    1776.771
     2433.884      9116.092    1741.498      2475.307      9118.764    1772.772
     2575.241      9197.115    1740.239      2624.292      9201.054    1774.171
     2704.463      9276.958    1730.677      2754.070      9281.991    1761.410
     2838.444      9356.815    1726.218      2901.097      9364.904    1760.658
     2973.282      9436.291    1723.379      3044.246      9447.855    1759.354
     3105.725      9514.542    1718.658      3182.751      9530.554    1757.834
     3254.511      9595.904    1721.262      3321.400      9613.595    1757.504
     3392.484      9674.371    1718.196      3455.139      9695.202    1756.488
     3533.429      9753.275    1717.604      3591.097      9777.080    1757.800
     3676.037      9832.725    1721.129      3733.472      9861.648    1763.958
     3823.827      9915.467    1730.655      3878.103      9948.071    1772.206
     3969.403      9998.090    1740.729      4023.919     10036.128    1784.191
     4105.319     10074.199    1746.382      4162.746     10119.559    1795.123
     4250.620     10157.961    1763.734      4306.999     10207.477    1817.818
     4399.635     10246.457    1791.653      4441.382     10286.354    1838.518
     4525.213     10312.838    1799.804      4599.319     10387.466    1889.662
     4685.002     10413.849    1850.408      4726.602     10456.315    1903.930
     4827.063     10496.464    1879.661      4869.249     10538.654    1934.247
     4978.501     10587.499    1916.155      5015.533     10623.000    1959.735
     5109.684     10659.040    1922.307      5149.320     10695.675    1962.733
     5231.952     10723.221    1917.581      5275.303     10762.343    1955.430
     5363.377     10796.200    1918.734      5407.174     10835.071    1953.261
     5505.110     10878.453    1923.196      5550.361     10918.079    1959.233
     5646.731     10960.613    1923.615      5685.573     10994.206    1958.043
     5790.099     11044.266    1924.884      5826.190     11075.135    1960.562
     5935.764     11129.816    1930.544      5968.792     11157.833    1963.942
     6076.805     11211.398    1930.243      6106.606     11236.559    1963.818
      556.120      7844.885    1718.118       556.419      7844.363    1741.976
      696.060      7925.848    1721.806       697.228      7925.365    1745.183
      835.944      8006.845    1724.413       838.811      8006.293    1752.229
      975.728      8087.844    1727.006       981.273      8087.282    1758.677
     1115.111      8168.858    1730.433      1124.547      8168.347    1764.768
     1254.746      8249.844    1735.310      1268.058      8249.481    1768.911
     1392.489      8330.854    1736.210      1408.372      8330.678    1766.759
     1530.535      8411.824    1738.201      1552.156      8411.813    1772.266
     1668.025      8492.769    1738.403      1696.292      8492.970    1775.105
     1804.349      8573.672    1736.119      1839.860      8574.139    1774.069
     1941.235      8654.534    1734.000      1981.483      8655.301    1770.919
     2080.528      8735.399    1733.717      2125.872      8736.555    1771.096
     2223.759      8816.355    1735.884      2270.225      8817.884    1771.160
     2369.590      8897.444    1738.408      2407.827      8899.037    1765.261
     2518.134      8978.771    1740.654      2562.193      8981.069    1769.236
     2663.517      9060.104    1738.900      2710.881      9063.199    1767.168
     2791.166      9140.180    1726.885      2851.633      9145.208    1759.782
     2923.453      9220.210    1720.662      2997.569      9228.211    1755.757
     3051.788      9299.152    1714.827      3134.943      9310.704    1751.173
     3188.985      9378.488    1712.520      3271.166      9393.346    1750.193
     3332.768      9458.701    1713.124      3412.249      9477.393    1751.683
     3469.141      9536.697    1709.860      3547.145      9560.298    1751.881
     3611.601      9615.898    1709.987      3681.070      9642.647    1753.201
     3748.906      9692.458    1710.618      3813.541      9723.641    1754.091
     3892.648      9771.661    1717.320      3960.518      9811.947    1765.058
     4038.208      9852.690    1726.941      4097.475      9894.862    1771.504
     4173.294      9926.336    1731.699      4236.954      9979.120    1783.148
     4319.920     10009.912    1748.193      4383.981     10070.487    1807.826
     4460.858     10089.659    1764.175      4513.282     10144.474    1823.517
     4593.087     10160.993    1777.773      4687.421     10266.241    1898.560
     4715.974     10223.174    1783.155      4824.963     10345.681    1921.656
     4926.409     10381.690    1899.375      4970.051     10428.559    1955.085
     5065.519     10458.843    1921.305      5100.492     10493.803    1961.908
     5186.913     10519.930    1918.924      5229.619     10560.081    1960.909
     5310.401     10585.003    1916.741      5359.058     10628.975    1956.766
     5446.106     10661.821    1921.560      5492.495     10702.712    1956.437
     5586.351     10742.743    1925.243      5623.430     10774.864    1954.237
     5724.864     10822.231    1923.754      5759.871     10852.088    1954.670
     5871.074     10908.271    1928.001      5904.481     10936.358    1960.925
     6017.291     10994.204    1933.945      6048.781     11020.375    1965.054
     6158.589     11075.995    1933.629      6186.813     11099.270    1964.920
      635.619      7707.188    1719.188       635.937      7706.634    1744.669
      775.410      7788.254    1717.898       776.663      7787.754    1742.014
      915.362      7869.218    1722.013       918.702      7868.596    1752.694
     1054.642      7950.268    1722.090      1060.047      7949.735    1750.900
     1193.790      8031.273    1725.595      1203.626      8030.749    1758.882
     1332.099      8112.283    1728.227      1347.285      8111.860    1763.745
     1471.924      8193.245    1734.421      1491.452      8192.994    1769.147
     1610.203      8274.229    1736.970      1634.187      8274.146    1771.951
     1749.202      8355.205    1738.917      1779.714      8355.286    1775.295
     1883.525      8436.140    1734.370      1918.048      8436.392    1768.046
     2020.726      8517.050    1732.776      2065.774      8517.578    1770.579
     2157.868      8597.908    1731.032      2201.272      8598.639    1763.987
     2299.159      8678.794    1731.521      2349.096      8679.949    1766.408
     2447.320      8759.871    1734.108      2491.691      8761.237    1762.323
     2597.917      8841.164    1734.517      2641.017      8842.882    1759.377
     2741.630      8922.329    1728.673      2799.302      8925.251    1759.312
     2878.390      9003.181    1719.664      2947.162      9007.590    1753.334
     3004.375      9083.074    1709.469      3087.721      9090.044    1745.601
     3133.733      9162.411    1703.724      3224.539      9172.871    1743.518
     3274.606      9242.556    1704.752      3363.128      9256.276    1744.065
     3413.863      9322.164    1705.311      3495.663      9338.973    1742.425
     3549.075      9400.172    1703.432      3628.940      9421.729    1742.158
     3690.588      9479.076    1704.789      3756.453      9502.189    1740.986
     3830.392      9556.812    1707.648      3908.478      9591.884    1754.452
     3970.671      9633.788    1711.783      4048.334      9678.319    1761.776
     4114.541      9712.578    1719.136      4179.659      9759.466    1765.395
     4255.180      9789.488    1726.755      4318.075      9844.364    1776.427
     4397.953      9868.936    1737.892      4461.667      9934.326    1797.672
     4536.713      9945.174    1748.015      4584.838     10001.660    1805.366
     4670.027     10013.836    1756.340      4706.712     10063.448    1810.596
     4793.134     10075.045    1763.643      4907.149     10227.716    1921.361
     5006.960     10250.215    1891.969      5050.989     10302.543    1950.490
     5142.147     10320.400    1910.159      5183.534     10363.799    1959.006
     5268.887     10385.353    1915.278      5311.152     10425.875    1956.341
     5396.938     10454.105    1918.445      5440.366     10493.409    1953.136
     5529.647     10528.128    1921.987      5569.799     10563.194    1951.568
     5664.337     10604.250    1922.792      5702.161     10636.549    1952.431
     5811.210     10690.809    1929.969      5846.371     10720.281    1961.198
     5955.913     10775.433    1934.251      5987.376     10801.369    1965.231
     6101.217     10860.475    1938.697      6131.653     10885.209    1968.530