NOECHO

-- =============================================================================
-- 
-- Exported from Reek_base_sim
-- 
-- Exported by user asny from RMS11 at 2020-02-19 15:45:42
-- 
-- =============================================================================

MAPUNITS
'METRES  ' /

MAPAXES
456514.897 5939172.242
456514.897 5927115.549
467218.886 5927115.549 /

GRIDUNIT
'METRES  ' '        ' /

SPECGRID
  40  64  14   1  F  /

GDORIENT
INC INC INC DOWN RIGHT /

COORD
        0.000      8808.105    1733.118         0.127      8807.820    1767.997
      140.026      8889.142    1734.828       140.767      8888.876    1767.441
      279.961      8970.176    1737.192       281.387      8969.933    1766.707
      419.780      9051.195    1741.145       422.349      9050.961    1771.896
      559.579      9132.195    1746.830       564.029      9131.984    1781.037
      699.134      9213.190    1750.574       705.247      9213.071    1784.102
      838.542      9294.171    1752.761       846.850      9294.165    1788.382
      977.928      9375.135    1753.140       988.985      9375.285    1792.403
     1116.827      9456.067    1750.163      1131.083      9456.438    1793.472
     1254.542      9536.923    1743.834      1271.917      9537.580    1788.532
     1392.700      9617.734    1739.560      1411.794      9618.686    1781.314
     1531.082      9698.497    1736.664      1553.004      9699.869    1778.161
     1669.706      9779.211    1737.299      1693.674      9781.046    1775.951
     1810.443      9860.041    1743.503      1836.274      9862.436    1778.705
     1950.290      9940.747    1748.762      1979.293      9944.001    1783.053
     2085.271     10020.716    1747.699      2119.144     10025.329    1784.448
     2221.925     10100.584    1747.675      2258.564     10106.653    1785.707
     2361.114     10180.598    1750.231      2398.214     10188.060    1787.521
     2500.810     10260.518    1754.091      2536.373     10269.141    1788.887
     2640.474     10340.241    1758.512      2677.104     10350.841    1794.133
     2781.137     10420.104    1763.456      2822.168     10434.108    1804.359
     2921.131     10499.642    1766.740      2965.344     10517.173    1812.775
     3061.981     10579.468    1769.236      3106.695     10599.735    1819.125
     3202.990     10659.410    1770.214      3246.516     10681.613    1822.246
     3343.750     10739.280    1769.443      3384.074     10762.125    1819.017
     3483.202     10818.381    1767.191      3518.380     10840.288    1810.964
     3622.100     10897.025    1766.725      3654.033     10918.683    1806.465
     3762.403     10976.593    1770.478      3791.247     10997.703    1807.437
     3903.912     11057.214    1778.430      3931.744     11078.953    1816.499
     4044.792     11137.585    1791.444      4072.680     11160.546    1830.919
     4189.485     11221.459    1814.890      4217.035     11245.060    1852.983
     4334.182     11305.758    1836.575      4363.720     11331.754    1877.799
     4470.795     11383.113    1843.933      4504.803     11413.532    1895.064
     4613.321     11465.840    1862.776      4649.521     11498.501    1920.610
     4758.908     11551.424    1890.393      4795.576     11584.679    1949.107
     4901.818     11634.629    1909.877      4936.324     11666.065    1966.027
     5042.344     11715.675    1918.504      5072.497     11743.284    1969.075
     5181.033     11795.028    1918.202      5206.246     11818.255    1964.412
     5321.937     11876.409    1921.007      5344.786     11897.605    1967.267
     5462.876     11957.822    1926.372      5483.956     11977.540    1971.833
     5603.748     12039.167    1926.083      5622.296     12056.694    1971.607
       79.446      8670.471    1733.142        79.610      8670.181    1767.974
      219.501      8751.506    1734.868       220.275      8751.238    1767.449
      359.475      8832.538    1737.248       360.947      8832.293    1766.769
      499.349      8913.556    1741.208       501.991      8913.323    1771.949
      639.206      8994.558    1746.868       643.776      8994.354    1781.046
      778.804      9075.555    1750.621       785.043      9075.446    1784.146
      918.239      9156.541    1752.777       926.740      9156.546    1788.391
     1057.732      9237.510    1753.154      1068.990      9237.673    1792.419
     1196.888      9318.456    1750.167      1211.061      9318.829    1793.469
     1334.836      9399.330    1743.892      1351.864      9399.970    1788.520
     1473.274      9480.172    1739.605      1491.995      9481.087    1781.304
     1612.148      9560.988    1736.778      1633.666      9562.299    1778.156
     1751.573      9641.796    1737.495      1774.905      9643.527    1775.929
     1893.037      9722.738    1743.668      1917.977      9724.969    1778.762
     2033.072      9803.536    1748.824      2061.145      9806.572    1783.061
     2168.645      9883.698    1747.839      2201.271      9887.984    1784.450
     2306.128      9963.846    1747.883      2340.992      9969.430    1785.718
     2446.069     10044.198    1750.524      2481.395     10051.088    1787.597
     2586.421     10124.520    1754.418      2620.771     10132.623    1788.972
     2726.504     10204.668    1758.906      2762.272     10214.771    1794.461
     2867.193     10284.891    1763.768      2907.161     10298.250    1804.698
     3007.035     10364.741    1767.021      3050.077     10381.509    1813.059
     3147.556     10444.786    1769.463      3190.933     10464.152    1819.324
     3288.345     10524.958    1770.303      3330.253     10546.065    1822.298
     3429.311     10605.272    1769.453      3467.336     10626.582    1818.903
     3569.369     10685.099    1767.193      3602.604     10705.603    1810.905
     3708.442     10764.244    1766.886      3739.011     10784.816    1806.568
     3848.024     10843.659    1770.834      3875.937     10863.960    1807.823
     3988.250     10923.583    1778.841      4015.062     10944.424    1816.973
     4128.073     11003.298    1792.078      4154.499     11024.967    1831.430
     4271.580     11086.278    1815.413      4297.203     11108.147    1853.253
     4414.744     11169.287    1836.655      4442.156     11193.315    1877.556
     4550.824     11246.201    1843.988      4582.872     11274.734    1894.954
     4693.098     11328.703    1862.870      4727.256     11359.348    1920.318
     4838.173     11413.800    1890.354      4872.911     11445.086    1948.583
     4980.599     11496.549    1909.788      5014.420     11527.113    1965.787
     5121.114     11577.577    1918.477      5150.932     11604.638    1969.102
     5260.030     11657.146    1918.223      5285.009     11679.933    1964.607
     5401.300     11738.854    1921.028      5423.795     11759.506    1967.369
     5542.548     11820.549    1926.387      5563.299     11839.745    1971.918
     5683.189     11901.678    1926.097      5701.737     11918.999    1971.688
      158.888      8532.873    1731.800       159.113      8532.479    1769.730
      298.870      8613.916    1732.184       299.802      8613.581    1765.993
      438.708      8694.948    1733.911       440.296      8694.685    1761.388
      578.435      8775.957    1737.713       581.387      8775.705    1767.435
      718.416      8856.934    1744.779       723.551      8856.722    1778.452
      857.784      8937.927    1747.781       864.473      8937.830    1779.486
      997.429      9018.904    1751.365      1007.439      9018.933    1788.173
     1136.689      9099.869    1751.347      1148.578      9100.055    1787.806
     1276.252      9180.823    1749.870      1291.874      9181.237    1792.350
     1413.421      9261.676    1742.236      1432.458      9262.372    1787.243
     1551.776      9342.518    1737.983      1571.905      9343.457    1778.785
     1689.546      9423.280    1733.091      1714.393      9424.703    1776.613
     1829.004      9504.085    1733.584      1855.515      9505.916    1773.770
     1973.763      9585.284    1743.546      1999.162      9587.385    1777.007
     2112.511      9665.996    1746.591      2138.661      9668.604    1776.731
     2246.306      9746.009    1743.394      2282.269      9750.372    1781.713
     2385.156      9826.374    1744.533      2422.038      9831.853    1782.974
     2523.798      9906.513    1745.609      2560.487      9913.195    1782.447
     2663.327      9986.615    1747.975      2696.895      9994.064    1779.806
     2805.138     10067.141    1753.020      2841.565     10076.896    1787.455
     2947.138     10147.756    1758.396      2987.879     10160.769    1798.545
     3085.521     10227.103    1759.891      3129.015     10243.417    1805.023
     3227.174     10307.574    1763.429      3271.480     10326.757    1812.928
     3367.975     10387.741    1764.373      3412.179     10409.472    1817.677
     3509.055     10468.107    1764.063      3547.631     10489.324    1812.859
     3648.219     10547.398    1761.039      3681.100     10567.399    1802.492
     3786.401     10625.922    1760.040      3818.122     10647.051    1799.353
     3925.450     10704.875    1764.484      3954.010     10725.505    1800.636
     4066.663     10785.468    1775.490      4095.075     10807.460    1814.212
     4203.621     10862.820    1786.044      4232.061     10886.066    1827.133
     4349.838     10947.997    1814.098      4372.960     10967.661    1847.919
     4496.679     11034.197    1842.117      4522.564     11056.778    1880.466
     4627.184     11106.248    1842.471      4658.272     11133.738    1890.743
     4769.931     11189.154    1862.326      4803.385     11218.888    1916.297
     4919.583     11278.279    1896.433      4955.754     11310.463    1953.674
     5060.603     11359.746    1912.896      5096.445     11391.660    1967.981
     5198.366     11438.314    1917.234      5229.063     11465.693    1965.778
     5335.675     11516.460    1914.648      5360.428     11538.606    1957.460
     5477.379     11598.528    1917.866      5500.969     11619.728    1962.871
     5619.572     11681.040    1924.493      5641.525     11700.886    1968.642
     5760.341     11762.261    1924.173      5780.089     11780.261    1968.347
      238.347      8395.246    1732.421       238.616      8394.774    1769.906
      378.222      8476.337    1729.073       379.231      8475.956    1761.031
      518.170      8557.324    1734.466       519.966      8557.016    1761.426
      657.476      8638.364    1734.334       660.494      8638.106    1760.606
      797.269      8719.327    1740.614       803.034      8719.097    1773.548
      936.792      8800.302    1744.995       945.034      8800.192    1778.844
     1075.856      8881.270    1747.172      1086.790      8881.311    1781.757
     1214.220      8962.209    1745.987      1226.532      8962.405    1778.390
     1355.833      9043.202    1750.753      1372.298      9043.628    1788.931
     1495.832      9124.165    1749.778      1515.860      9124.864    1790.578
     1633.367      9205.013    1743.272      1657.365      9206.064    1785.733
     1771.544      9285.839    1738.467      1800.528      9287.380    1783.090
     1909.623      9366.606    1736.184      1938.792      9368.458    1775.438
     2049.719      9447.456    1739.292      2075.778      9449.426    1770.077
     2187.796      9528.083    1741.202      2220.120      9531.022    1775.274
     2325.934      9608.584    1742.041      2361.675      9612.543    1776.959
     2464.674      9688.991    1742.511      2502.559      9694.155    1778.453
     2603.467      9769.221    1743.463      2643.277      9775.915    1779.341
     2745.668      9849.935    1746.963      2783.808      9857.809    1779.528
     2885.232      9930.037    1748.601      2921.039      9939.034    1779.623
     3025.670     10010.207    1751.439      3066.753     10022.639    1789.403
     3166.719     10090.491    1755.130      3213.829     10107.417    1801.677
     3311.324     10172.260    1761.738      3353.336     10189.879    1806.818
     3451.077     10252.164    1762.190      3492.287     10271.996    1809.812
     3591.129     10332.143    1761.592      3627.457     10351.887    1804.813
     3729.330     10410.973    1758.601      3766.771     10433.653    1802.150
     3866.430     10488.842    1757.681      3906.322     10515.456    1803.406
     4005.717     10567.979    1763.951      4039.778     10592.725    1804.361
     4144.235     10646.507    1773.534      4176.676     10671.862    1815.131
     4290.386     10731.377    1798.304      4322.749     10758.093    1842.773
     4435.796     10816.212    1826.057      4462.422     10838.993    1863.951
     4572.987     10894.173    1841.366      4599.779     10917.594    1880.197
     4707.751     10969.990    1849.677      4732.751     10992.059    1886.944
     4859.603     11060.969    1883.870      4885.514     11083.876    1922.827
     5007.698     11148.646    1913.371      5038.756     11176.051    1957.739
     5138.439     11221.028    1913.642      5173.614     11251.991    1962.490
     5270.710     11294.794    1909.721      5303.659     11323.755    1957.473
     5413.535     11377.838    1915.690      5441.606     11402.514    1960.598
     5557.007     11461.447    1922.106      5580.894     11482.485    1964.201
     5697.918     11542.796    1925.951      5720.684     11562.925    1967.921
     5838.853     11624.157    1925.764      5859.359     11642.404    1967.724
      317.788      8257.649    1730.241       318.021      8257.242    1757.362
      457.829      8338.656    1733.064       459.045      8338.184    1766.843
      597.666      8419.691    1734.490       600.054      8419.274    1765.966
      736.966      8500.732    1734.526       740.811      8500.403    1763.775
      876.136      8581.721    1736.992       883.208      8581.442    1772.240
     1016.243      8662.671    1743.845      1026.039      8662.547    1778.653
     1155.231      8743.640    1745.954      1168.223      8743.692    1781.139
     1292.074      8824.559    1742.419      1307.223      8824.795    1776.156
     1430.976      8905.474    1742.490      1447.918      8905.894    1775.323
     1572.335      8986.453    1745.159      1596.836      8987.257    1786.846
     1712.815      9067.413    1744.427      1738.005      9068.437    1781.891
     1852.033      9148.309    1741.411      1878.994      9149.623    1776.748
     1990.232      9229.119    1739.304      2017.500      9230.693    1770.929
     2128.331      9309.864    1739.556      2157.484      9311.857    1769.634
     2264.046      9390.327    1738.307      2293.785      9392.766    1766.202
     2402.414      9470.849    1738.523      2434.842      9474.087    1766.508
     2545.717      9551.809    1741.912      2591.821      9557.494    1779.515
     2685.231      9632.264    1742.320      2735.957      9640.027    1781.184
     2821.218      9711.904    1739.865      2873.092      9721.718    1778.169
     2956.515      9790.899    1737.154      3004.699      9802.097    1773.895
     3096.320      9870.499    1738.055      3152.857      9886.506    1784.933
     3241.788      9951.766    1744.171      3292.329      9968.995    1790.276
     3386.413     10033.165    1749.750      3432.006     10051.589    1795.784
     3527.912     10113.558    1752.123      3571.792     10134.222    1799.677
     3667.989     10193.296    1752.237      3705.827     10213.719    1793.405
     3813.555     10276.350    1758.692      3850.665     10298.952    1797.685
     3949.126     10353.405    1758.291      3983.911     10376.949    1794.733
     4088.562     10432.780    1766.963      4121.466     10457.206    1803.336
     4224.970     10509.723    1776.828      4254.740     10533.656    1812.427
     4380.614     10602.902    1815.141      4413.059     10630.500    1856.426
     4523.661     10686.174    1841.000      4552.650     10711.507    1880.682
     4651.439     10755.955    1844.921      4677.420     10778.959    1881.558
     4792.876     10837.731    1865.366      4814.956     10857.318    1896.528
     4950.213     10933.580    1906.136      4975.773     10956.162    1940.866
     5085.749     11010.115    1915.806      5120.622     11040.750    1959.920
     5213.114     11079.575    1911.737      5251.802     11113.366    1959.694
     5347.733     11155.473    1910.575      5380.967     11184.355    1954.573
     5489.778     11237.839    1914.527      5516.831     11261.267    1954.830
     5633.966     11322.039    1921.376      5658.705     11343.431    1962.247
     5776.020     11404.376    1926.660      5800.003     11425.138    1967.880
     5917.102     11485.859    1926.422      5938.713     11504.642    1967.608
      397.228      8120.056    1727.100       397.500      8119.580    1754.431
      537.353      8201.001    1733.060       538.664      8200.489    1765.304
      677.317      8282.028    1735.331       679.814      8281.591    1764.710
      816.589      8363.088    1734.654       821.568      8362.663    1768.460
      955.104      8444.110    1733.837       963.124      8443.797    1769.336
     1093.834      8525.067    1736.319      1104.844      8524.929    1770.768
     1232.838      8606.006    1739.973      1245.609      8606.056    1769.967
     1369.779      8686.912    1738.794      1387.270      8687.174    1771.852
     1508.366      8767.813    1739.740      1530.875      8768.341    1776.113
     1646.958      8848.701    1738.921      1677.344      8849.629    1781.697
     1789.573      8929.717    1741.926      1821.581      8930.911    1781.378
     1932.175      9010.758    1743.718      1962.238      9012.089    1776.622
     2069.943      9091.576    1741.331      2097.421      9093.003    1768.312
     2209.948      9172.471    1742.545      2239.694      9174.291    1768.961
     2347.076      9253.129    1741.295      2385.954      9255.967    1772.988
     2485.542      9333.779    1740.044      2519.735      9336.811    1765.565
     2620.452      9413.905    1735.620      2670.770      9419.429    1770.446
     2761.584      9494.514    1735.978      2817.276      9502.145    1771.711
     2896.884      9574.071    1732.816      2963.005      9585.326    1773.855
     3031.215      9652.865    1729.176      3096.105      9666.573    1771.321
     3169.547      9731.890    1728.124      3228.044      9747.165    1769.927
     3316.990      9813.312    1733.679      3369.648      9830.140    1776.452
     3457.205      9892.606    1733.804      3501.382      9909.645    1774.397
     3600.943      9973.300    1737.904      3645.173      9993.571    1781.431
     3747.125     10055.683    1744.497      3788.345     10077.789    1784.379
     3890.834     10137.438    1750.151      3929.348     10161.193    1786.361
     4027.877     10215.156    1753.720      4061.883     10238.822    1786.353
     4169.246     10295.814    1766.534      4203.693     10322.413    1802.480
     4308.915     10375.360    1782.567      4340.147     10401.665    1818.494
     4451.148     10457.459    1806.414      4497.222     10498.676    1861.573
     4601.051     10547.139    1840.280      4631.513     10574.968    1880.846
     4735.028     10622.285    1854.520      4761.720     10646.704    1891.428
     4882.163     10709.311    1885.500      4905.241     10730.129    1916.577
     5030.219     10796.911    1912.319      5054.063     10818.097    1941.602
     5154.984     10863.892    1908.797      5192.184     10896.553    1950.726
     5286.464     10937.015    1909.846      5331.895     10976.510    1960.442
     5428.573     11019.451    1916.794      5468.819     11054.136    1965.842
     5570.410     11101.640    1919.918      5604.596     11130.882    1967.977
     5710.463     11182.290    1919.690      5742.887     11209.877    1970.957
     5853.636     11265.574    1926.127      5883.700     11291.092    1975.289
     5994.924     11347.232    1925.808      6022.144     11370.360    1975.124
      476.670      7982.458    1723.418       476.974      7981.927    1750.637
      616.858      8063.352    1731.595       618.316      8062.786    1763.914
      756.655      8144.418    1731.804       759.824      8143.868    1765.728
      895.914      8225.469    1732.043       901.387      8225.007    1766.062
     1035.323      8306.450    1735.376      1043.820      8306.125    1769.735
     1174.407      8387.425    1737.720      1187.028      8387.271    1773.568
     1313.274      8468.386    1740.193      1327.729      8468.439    1770.434
     1448.834      8549.290    1737.222      1468.002      8549.561    1768.644
     1587.376      8630.199    1738.971      1612.875      8630.756    1773.940
     1725.308      8711.081    1738.226      1754.885      8711.911    1773.178
     1863.088      8791.932    1736.393      1898.939      8793.145    1773.470
     2005.617      8872.937    1738.947      2040.162      8874.311    1770.812
     2146.233      8953.872    1739.669      2180.177      8955.444    1768.075
     2289.694      9034.947    1742.559      2323.563      9036.781    1768.507
     2430.237      9115.876    1742.132      2476.251      9118.826    1774.507
     2568.017      9196.579    1738.555      2610.572      9199.873    1766.200
     2701.345      9276.728    1731.943      2758.494      9282.219    1766.289
     2842.187      9357.382    1730.871      2897.378      9364.071    1760.766
     2966.394      9435.478    1721.968      3041.919      9446.862    1760.678
     3109.586      9515.779    1723.034      3181.646      9529.373    1762.411
     3251.292      9595.650    1723.880      3317.935      9611.452    1764.297
     3391.487      9674.916    1723.184      3448.528      9691.756    1763.030
     3531.241      9753.686    1721.858      3576.497      9770.115    1758.095
     3676.097      9834.274    1726.178      3723.932      9855.369    1767.040
     3820.933      9915.303    1731.441      3870.946      9941.787    1773.835
     3964.498      9996.210    1738.072      4009.536     10024.381    1776.007
     4104.683     10075.313    1746.254      4149.415     10107.667    1785.967
     4249.025     10157.932    1763.146      4288.774     10190.486    1802.986
     4395.902     10243.890    1788.303      4435.944     10280.050    1834.361
     4525.762     10314.838    1798.557      4584.717     10371.478    1869.775
     4687.703     10417.103    1848.169      4718.047     10446.860    1887.797
     4830.122     10500.079    1875.890      4856.668     10525.753    1912.089
     4978.336     10587.853    1909.833      4998.576     10606.704    1936.155
     5109.191     10659.445    1914.823      5134.437     10682.179    1943.589
     5230.694     10723.364    1909.347      5270.119     10758.077    1949.982
     5363.776     10797.925    1912.573      5411.340     10839.153    1961.162
     5505.902     10880.396    1918.841      5557.000     10924.137    1976.811
     5648.858     10963.548    1922.167      5691.870     10999.958    1979.784
     5788.474     11043.863    1920.173      5827.395     11076.501    1980.000
     5932.675     11127.999    1927.765      5968.544     11157.888    1984.270
     6074.087     11209.768    1927.381      6106.618     11236.812    1984.151
      556.135      7844.821    1720.958       556.489      7844.202    1750.641
      696.001      7925.839    1722.610       697.888      7925.122    1760.855
      835.737      8006.848    1725.953       839.282      8006.248    1760.972
      974.959      8087.870    1727.713       981.310      8087.346    1764.559
     1114.466      8168.832    1732.025      1124.638      8168.451    1770.523
     1255.208      8249.781    1738.778      1266.901      8249.640    1769.726
     1392.532      8330.762    1737.225      1405.121      8330.803    1761.398
     1529.934      8411.699    1737.808      1545.873      8411.906    1761.314
     1665.405      8492.571    1735.906      1688.541      8493.031    1763.906
     1804.263      8573.488    1737.149      1834.896      8574.260    1768.670
     1940.941      8654.330    1735.290      1977.802      8655.434    1768.364
     2082.692      8735.308    1737.477      2127.712      8736.878    1773.567
     2223.647      8816.257    1738.170      2262.208      8817.814    1766.391
     2364.474      8897.192    1737.679      2400.501      8898.881    1761.967
     2506.840      8978.202    1736.403      2557.208      8980.974    1767.561
     2654.152      9059.557    1736.507      2700.810      9062.634    1763.597
     2780.792      9139.401    1724.764      2843.341      9144.521    1758.666
     2916.265      9219.529    1720.214      2991.414      9227.415    1755.779
     3047.212      9298.736    1715.215      3133.933      9310.184    1753.201
     3186.735      9378.545    1714.104      3267.830      9392.009    1753.049
     3328.050      9458.290    1715.219      3397.303      9472.940    1751.450
     3469.586      9537.844    1715.567      3527.252      9553.277    1749.736
     3607.296      9615.893    1712.810      3657.846      9632.818    1747.020
     3747.042      9693.916    1712.508      3798.566      9715.313    1749.865
     3891.458      9773.572    1717.048      3951.995      9804.667    1762.002
     4036.966      9854.255    1725.652      4088.514      9886.666    1765.078
     4174.190      9929.716    1731.731      4228.297      9970.513    1777.004
     4323.591     10015.193    1752.043      4368.910     10055.168    1796.446
     4462.230     10092.799    1765.990      4506.271     10136.479    1817.547
     4596.299     10166.351    1779.087      4675.044     10250.517    1879.191
     4724.308     10234.323    1785.437      4816.740     10335.194    1906.257
     4929.241     10384.735    1896.883      4952.338     10408.944    1928.202
     5067.418     10461.091    1917.920      5088.449     10481.621    1944.518
     5185.890     10519.989    1911.191      5215.794     10547.509    1943.900
     5312.794     10588.464    1913.978      5351.108     10622.382    1951.396
     5447.626     10664.514    1920.132      5492.529     10703.293    1963.448
     5583.849     10741.914    1921.003      5630.815     10781.791    1971.413
     5726.643     10824.933    1923.484      5771.983     10862.867    1981.572
     5870.843     10909.078    1927.307      5911.196     10942.402    1987.715
     6014.392     10992.625    1933.503      6052.181     11023.521    1990.985
     6155.900     11074.464    1933.187      6190.024     11102.207    1990.902
      635.556      7707.261    1715.170       636.016      7706.457    1752.323
      775.096      7788.333    1714.402       777.130      7787.587    1752.444
      914.628      7869.302    1719.383       918.841      7868.616    1758.157
     1053.899      7950.275    1723.393      1061.641      7949.661    1765.833
     1192.965      8031.236    1726.691      1202.817      8030.879    1762.161
     1332.223      8112.185    1730.162      1343.844      8112.046    1759.299
     1471.075      8193.139    1732.953      1483.221      8193.171    1754.949
     1612.429      8274.124    1739.404      1629.476      8274.320    1762.968
     1747.632      8355.031    1736.839      1775.242      8355.512    1767.750
     1882.563      8435.896    1734.356      1912.346      8436.539    1762.285
     2020.640      8516.803    1734.607      2060.808      8517.819    1767.155
     2162.797      8597.805    1737.111      2208.766      8599.148    1770.299
     2303.831      8678.773    1737.090      2351.233      8680.373    1768.321
     2448.312      8759.869    1736.999      2494.322      8761.671    1764.879
     2592.368      8840.990    1733.919      2640.836      8843.215    1761.086
     2734.766      8922.080    1728.611      2793.036      8925.257    1759.749
     2873.822      9002.997    1721.882      2938.206      9007.278    1754.129
     3001.335      9082.896    1711.939      3082.829      9089.806    1747.299
     3133.146      9162.550    1705.846      3214.931      9171.648    1741.823
     3270.095      9242.275    1705.131      3349.521      9253.715    1741.399
     3407.893      9321.649    1706.468      3481.991      9335.407    1741.609
     3549.997      9401.461    1708.828      3627.144      9419.823    1748.480
     3688.305      9479.977    1707.999      3754.313      9499.889    1745.686
     3827.378      9558.051    1707.365      3895.327      9583.756    1749.297
     3968.361      9635.791    1709.246      4031.426      9666.275    1750.817
     4109.611      9712.677    1714.522      4167.043      9748.402    1755.436
     4248.278      9787.167    1720.767      4301.117      9828.445    1763.538
     4395.964      9869.486    1736.536      4450.156      9921.023    1789.588
     4537.496      9948.086    1749.286      4583.615      9999.332    1805.255
     4675.239     10022.752    1761.626      4708.974     10066.235    1809.505
     4802.520     10088.635    1768.662      4891.466     10205.946    1892.500
     5014.540     10259.189    1895.258      5032.519     10280.275    1920.187
     5150.437     10329.346    1914.103      5180.775     10360.524    1952.307
     5272.448     10389.689    1914.461      5308.452     10423.543    1953.347
     5399.643     10457.801    1919.646      5442.220     10495.619    1960.282
     5528.698     10528.706    1922.142      5578.960     10571.784    1969.178
     5662.289     10603.930    1921.900      5707.377     10641.717    1968.372
     5810.221     10691.168    1931.363      5851.474     10725.135    1981.755
     5953.056     10774.104    1934.328      5991.292     10805.098    1988.938
     6097.089     10857.967    1939.997      6133.963     10887.476    1993.777