NOECHO

-- =============================================================================
-- 
-- Exported from Reek_base_sim
-- 
-- Exported by user asny from RMS11 at 2020-02-19 16:29:41
-- 
-- =============================================================================

MAPUNITS
'METRES  ' /

MAPAXES
456514.872 5939177.222
456514.872 5927115.548
467218.482 5927115.548 /

GRIDUNIT
'METRES  ' '        ' /

SPECGRID
  40  64  14   1  F  /

GDORIENT
INC INC INC DOWN RIGHT /

COORD
        0.000      8808.156    1734.789         0.186      8807.757    1770.237
      139.935      8889.188    1735.054       140.903      8888.825    1771.263
      279.768      8970.206    1736.314       281.845      8969.854    1776.508
      419.480      9051.202    1737.170       422.908      9050.921    1778.970
      558.785      9132.192    1734.815       563.700      9132.021    1773.255
      697.876      9213.154    1734.191       704.933      9213.110    1772.202
      837.176      9294.095    1737.144       847.570      9294.233    1778.738
      976.271      9375.020    1739.413       990.095      9375.401    1783.368
     1114.506      9455.889    1738.128      1131.182      9456.556    1781.492
     1252.587      9536.709    1736.189      1271.086      9537.662    1776.923
     1390.908      9617.492    1735.380      1412.881      9618.880    1776.685
     1529.429      9698.233    1736.582      1552.786      9700.004    1773.032
     1667.719      9778.891    1737.664      1692.468      9781.114    1770.476
     1805.631      9859.419    1737.543      1835.404      9862.578    1773.521
     1943.080      9939.755    1737.634      1978.657      9944.223    1778.772
     2082.275     10020.156    1741.498      2121.959     10026.078    1785.746
     2219.869     10100.113    1744.058      2261.084     10107.451    1787.579
     2357.987     10179.884    1746.787      2400.157     10188.845    1789.899
     2499.698     10260.248    1753.394      2542.562     10271.088    1796.706
     2642.889     10341.013    1762.502      2684.924     10353.607    1804.952
     2785.349     10421.646    1770.114      2826.372     10436.107    1810.350
     2925.470     10501.423    1772.194      2966.902     10518.427    1809.509
     3063.253     10579.988    1769.671      3107.172     10600.655    1808.211
     3201.474     10658.452    1765.811      3242.318     10680.110    1802.377
     3341.280     10737.641    1762.964      3378.616     10759.571    1798.124
     3480.136     10816.219    1760.856      3516.641     10839.647    1797.438
     3619.167     10894.823    1761.473      3656.834     10920.958    1801.873
     3759.882     10974.617    1766.980      3800.817     11005.055    1814.259
     3901.686     11055.415    1775.298      3940.720     11086.232    1825.194
     4042.815     11135.945    1788.255      4081.930     11168.366    1841.415
     4188.450     11220.597    1814.815      4225.536     11252.510    1862.551
     4334.219     11305.824    1839.641      4368.385     11335.995    1880.993
     4469.882     11382.302    1848.270      4506.208     11414.897    1892.281
     4612.409     11465.014    1866.065      4647.635     11496.899    1908.795
     4761.060     11553.388    1893.648      4795.451     11584.676    1932.292
     4904.636     11637.210    1912.150      4940.612     11670.079    1949.741
     5041.675     11715.064    1918.895      5078.969     11749.294    1957.340
     5181.186     11795.169    1923.590      5214.025     11825.464    1960.051
     5322.219     11876.677    1927.553      5352.584     11904.854    1965.637
     5463.521     11958.437    1931.733      5490.506     11983.651    1970.503
     5604.134     12039.552    1931.493      5627.609     12061.673    1970.306
       79.445      8670.517    1734.814        79.662      8670.136    1770.291
      219.409      8751.551    1735.089       220.376      8751.199    1771.327
      359.280      8832.568    1736.332       361.359      8832.225    1776.512
      499.054      8913.563    1737.167       502.525      8913.288    1778.931
      638.457      8994.553    1734.875       643.381      8994.395    1773.299
      777.708      9075.520    1734.249       784.790      9075.491    1772.252
      917.128      9156.469    1737.188       927.627      9156.624    1778.771
     1056.229      9237.401    1739.439      1070.153      9237.801    1783.372
     1194.462      9318.281    1738.176      1210.880      9318.943    1781.482
     1332.604      9399.114    1736.254      1350.453      9400.030    1776.941
     1471.053      9479.917    1735.469      1491.981      9481.226    1776.690
     1609.964      9560.706    1736.654      1632.420      9562.379    1773.040
     1748.857      9641.445    1737.715      1772.896      9643.557    1770.506
     1887.548      9722.099    1737.615      1916.553      9725.095    1773.559
     2025.839      9802.612    1737.818      2060.577      9806.848    1778.844
     2165.689      9883.206    1741.648      2204.712      9888.858    1785.845
     2303.901      9963.419    1744.252      2344.188      9970.382    1787.569
     2442.870     10043.557    1747.127      2483.624     10051.977    1790.015
     2585.269     10124.320    1753.869      2626.062     10134.373    1796.906
     2728.268     10205.312    1762.958      2768.837     10217.186    1805.147
     2870.962     10286.334    1770.397      2911.130     10300.217    1810.407
     3011.661     10366.705    1772.238      3051.780     10382.905    1809.501
     3150.200     10446.036    1769.605      3192.142     10465.523    1808.185
     3289.170     10525.345    1765.725      3327.319     10545.374    1802.267
     3429.589     10605.359    1762.916      3463.863     10625.327    1798.118
     3568.419     10684.412    1760.861      3601.651     10705.590    1797.593
     3706.592     10762.897    1761.764      3741.347     10786.866    1802.371
     3846.258     10842.319    1767.424      3884.156     10870.354    1814.757
     3986.262     10922.022    1775.685      4022.249     10950.313    1825.523
     4126.220     11001.788    1788.932      4161.595     11031.008    1841.557
     4270.950     11085.781    1815.512      4303.284     11113.512    1862.286
     4414.354     11168.985    1839.691      4444.475     11195.492    1880.549
     4549.528     11245.050    1848.291      4582.033     11274.101    1892.016
     4691.909     11327.625    1866.091      4723.163     11355.780    1908.284
     4839.581     11415.072    1893.450      4869.971     11442.559    1931.334
     4982.565     11498.329    1911.980      5015.982     11528.656    1949.274
     5120.173     11576.712    1918.872      5155.943     11609.297    1957.278
     5260.604     11657.660    1923.607      5292.350     11686.706    1960.156
     5402.497     11739.952    1927.602      5431.910     11767.001    1965.760
     5543.904     11821.806    1931.763      5570.454     11846.376    1970.599
     5684.112     11902.548    1931.520      5707.656     11924.508    1970.401
      158.881      8532.929    1733.360       159.123      8532.507    1767.429
      298.777      8613.964    1732.842       299.808      8613.577    1767.824
      438.637      8694.958    1735.010       441.053      8694.559    1776.563
      578.467      8775.936    1736.687       582.651      8775.616    1780.898
      717.303      8856.936    1730.892       722.640      8856.782    1767.948
      856.622      8937.881    1731.820       864.398      8937.874    1768.904
      996.213      9018.825    1735.631      1007.973      9019.026    1777.062
     1135.406      9099.757    1738.460      1150.705      9100.218    1781.762
     1272.991      9180.610    1736.435      1292.094      9181.391    1782.538
     1410.913      9261.432    1734.917      1430.357      9262.420    1775.889
     1549.006      9342.218    1733.973      1572.790      9343.663    1777.487
     1688.438      9423.047    1735.755      1712.261      9424.750    1771.709
     1827.475      9503.812    1736.516      1850.721      9505.752    1766.381
     1966.242      9584.495    1736.064      1995.337      9587.330    1770.237
     2103.797      9664.955    1734.990      2138.134      9668.884    1773.304
     2244.736      9745.705    1739.411      2286.395      9751.357    1783.492
     2381.018      9825.654    1739.527      2423.444      9832.531    1782.165
     2519.840      9905.749    1741.827      2563.860      9914.301    1785.379
     2663.657      9986.764    1749.313      2706.256      9996.678    1792.020
     2806.521     10067.664    1757.172      2848.310     10079.289    1798.453
     2951.961     10149.514    1766.060      2993.217     10163.179    1805.064
     3092.438     10229.885    1767.186      3129.339     10244.294    1800.510
     3230.887     10309.265    1764.286      3273.827     10328.723    1803.287
     3368.176     10387.771    1759.000      3403.861     10406.173    1793.135
     3509.140     10468.050    1757.290      3543.596     10487.869    1792.687
     3648.314     10547.333    1756.273      3681.638     10568.371    1793.251
     3783.239     10623.641    1754.349      3817.050     10646.792    1793.673
     3924.248     10703.929    1762.210      3963.531     10732.835    1810.638
     4064.203     10783.549    1772.094      4098.273     10810.237    1818.588
     4199.977     10859.840    1780.961      4238.357     10891.447    1837.547
     4349.434     10947.714    1815.158      4382.212     10975.727    1863.269
     4497.127     11034.660    1846.755      4526.039     11059.989    1886.887
     4625.465     11104.720    1846.915      4657.733     11133.390    1891.127
     4767.001     11186.513    1863.858      4796.824     11213.167    1904.590
     4921.503     11280.000    1899.847      4950.178     11305.673    1935.580
     5064.418     11363.154    1916.989      5095.908     11391.377    1951.451
     5196.833     11436.903    1917.725      5233.679     11469.977    1955.975
     5334.992     11515.793    1919.345      5368.646     11546.075    1956.412
     5477.334     11598.447    1922.941      5508.784     11626.842    1961.631
     5619.524     11680.968    1927.633      5648.856     11707.579    1967.393
     5759.938     11761.877    1927.342      5786.221     11785.876    1967.153
      238.330      8395.319    1733.074       238.653      8394.755    1772.791
      378.170      8476.372    1731.089       379.562      8475.825    1773.901
      517.867      8557.373    1731.487       520.640      8556.903    1773.748
      657.548      8638.336    1732.949       661.932      8638.001    1773.139
      796.568      8719.308    1730.331       802.595      8719.144    1766.497
      935.478      8800.247    1729.944       944.888      8800.253    1768.707
     1074.058      8881.162    1730.775      1087.245      8881.403    1771.140
     1213.329      8962.079    1734.571      1230.870      8962.618    1778.297
     1352.239      9042.976    1736.772      1372.889      9043.815    1781.283
     1491.405      9123.869    1738.321      1516.004      9125.090    1784.439
     1631.725      9204.811    1740.842      1659.893      9206.460    1786.243
     1770.028      9285.613    1739.781      1798.103      9287.524    1777.886
     1906.729      9366.242    1737.030      1932.956      9368.306    1768.081
     2043.341      9446.759    1733.962      2070.237      9449.211    1763.492
     2181.864      9527.335    1733.735      2213.269      9530.685    1766.438
     2321.211      9607.888    1735.979      2363.952      9613.283    1777.505
     2460.343      9688.280    1738.295      2510.942      9695.913    1784.460
     2601.771      9768.916    1742.369      2652.458      9778.097    1787.586
     2744.051      9849.686    1747.444      2789.885      9859.674    1789.008
     2885.919      9930.363    1752.599      2938.499      9944.155    1800.211
     3028.858     10011.357    1757.455      3075.869     10026.187    1798.796
     3170.504     10092.007    1758.970      3212.858     10107.953    1795.310
     3314.311     10173.661    1760.882      3356.409     10192.279    1797.849
     3456.228     10254.760    1761.079      3493.853     10273.902    1796.089
     3593.389     10333.359    1757.734      3629.695     10354.128    1793.757
     3732.882     10413.097    1758.943      3771.430     10437.436    1799.772
     3866.117     10488.517    1756.557      3907.196     10516.731    1801.977
     4004.390     10566.973    1762.192      4046.584     10598.185    1811.645
     4144.538     10646.788    1774.087      4180.853     10675.463    1821.122
     4286.902     10728.605    1794.556      4327.634     10762.413    1851.739
     4435.284     10815.909    1828.134      4471.591     10847.072    1879.781
     4574.238     10895.374    1848.078      4606.814     10923.936    1892.865
     4709.004     10971.138    1858.034      4738.370     10997.174    1897.834
     4859.494     11060.917    1887.370      4883.901     11082.623    1919.797
     5007.896     11148.885    1913.120      5035.294     11173.235    1945.469
     5139.609     11222.041    1915.551      5174.652     11253.141    1952.021
     5271.410     11295.311    1915.069      5308.844     11328.497    1952.256
     5412.346     11376.695    1919.121      5448.703     11408.917    1957.381
     5556.090     11460.567    1924.189      5589.406     11490.127    1962.990
     5698.364     11543.134    1928.872      5729.209     11570.577    1967.660
     5838.844     11624.102    1928.622      5866.615     11648.928    1967.483
      317.798      8257.677    1733.579       318.193      8256.986    1776.408
      457.706      8338.720    1732.818       459.317      8338.069    1777.248
      597.201      8419.770    1729.446       600.310      8419.234    1771.179
      736.511      8500.746    1728.700       741.460      8500.367    1767.732
      875.326      8581.696    1727.128       883.943      8581.467    1770.947
     1014.405      8662.613    1728.791      1025.245      8662.631    1766.637
     1153.143      8743.522    1730.460      1167.929      8743.803    1769.104
     1290.560      8824.382    1730.063      1309.309      8824.959    1770.465
     1429.482      8905.267    1733.174      1453.929      8906.244    1779.211
     1571.098      8986.270    1739.545      1600.191      8987.667    1786.769
     1711.649      9067.237    1742.122      1742.643      9068.970    1785.141
     1849.610      9148.040    1740.828      1882.901      9150.180    1780.665
     1989.588      9228.945    1741.967      2020.430      9231.215    1775.137
     2123.197      9309.291    1735.953      2153.398      9311.848    1766.576
     2262.444      9389.990    1736.143      2294.781      9393.177    1767.122
     2397.513      9470.114    1733.526      2440.645      9475.133    1771.548
     2537.940      9550.678    1735.941      2592.659      9558.283    1780.382
     2680.766      9631.538    1739.976      2737.458      9641.007    1784.126
     2823.241      9712.354    1743.876      2878.218      9723.437    1787.005
     2959.359      9791.625    1742.670      3013.198      9804.790    1785.561
     3099.000      9871.289    1743.238      3146.760      9885.502    1781.034
     3241.237      9951.532    1744.290      3288.934      9968.735    1781.974
     3389.657     10034.481    1749.769      3439.571     10055.981    1791.221
     3534.801     10116.855    1753.848      3579.525     10139.353    1793.473
     3674.715     10196.929    1755.094      3715.629     10220.361    1793.345
     3812.958     10275.951    1756.888      3860.310     10306.137    1803.196
     3950.497     10354.322    1760.525      4000.069     10388.873    1810.908
     4087.837     10432.304    1766.732      4133.566     10466.778    1816.434
     4224.301     10509.324    1776.301      4266.957     10543.832    1827.343
     4374.749     10598.127    1808.864      4421.151     10637.644    1868.373
     4521.275     10684.295    1840.681      4558.246     10716.595    1890.784
     4647.421     10752.568    1844.850      4686.952     10787.589    1898.092
     4791.011     10836.187    1869.048      4823.213     10864.829    1911.208
     4950.917     10934.332    1909.724      4976.647     10957.181    1941.464
     5088.283     11012.430    1919.194      5118.040     11038.763    1951.567
     5210.091     11076.853    1910.476      5247.156     11109.520    1946.709
     5344.711     11152.682    1911.837      5384.960     11188.011    1950.358
     5493.281     11240.764    1922.861      5529.281     11272.258    1959.765
     5635.521     11323.287    1926.412      5668.417     11352.009    1963.484
     5778.364     11406.330    1931.579      5809.231     11433.284    1968.328
     5918.884     11487.336    1931.328      5946.733     11511.722    1968.144
      397.208      8120.135    1727.197       397.624      8119.409    1767.046
      537.105      8201.117    1729.791       538.732      8200.454    1769.750
      676.741      8282.127    1729.310       680.105      8281.544    1769.031
      816.240      8363.095    1729.912       821.822      8362.671    1767.937
      954.813      8444.064    1727.464       963.899      8443.830    1766.703
     1093.394      8524.981    1727.902      1105.896      8525.009    1764.722
     1231.689      8605.877    1728.887      1247.255      8606.175    1763.291
     1369.430      8686.741    1729.563      1389.509      8687.353    1766.419
     1508.626      8767.640    1733.156      1536.224      8768.715    1777.489
     1646.674      8848.483    1734.188      1677.190      8849.893    1776.573
     1786.231      8929.380    1736.350      1816.303      8930.976    1772.379
     1926.810      9010.326    1739.126      1962.157      9012.458    1776.562
     2067.112      9091.250    1741.095      2100.557      9093.538    1773.843
     2203.084      9171.823    1738.147      2238.369      9174.577    1771.123
     2342.247      9252.558    1737.766      2377.121      9255.707    1768.321
     2480.768      9333.149    1736.757      2523.270      9337.656    1770.663
     2615.472      9413.125    1733.046      2670.279      9420.055    1772.541
     2758.009      9493.925    1735.370      2821.167      9503.520    1777.486
     2892.516      9573.237    1732.574      2955.481      9584.792    1773.746
     3027.685      9651.997    1729.702      3086.941      9665.316    1769.350
     3168.832      9731.521    1729.853      3223.027      9746.571    1766.710
     3316.156      9812.818    1733.164      3370.559      9831.458    1771.522
     3460.029      9893.334    1734.473      3512.194      9915.105    1774.693
     3604.262      9974.417    1738.501      3653.599      9998.930    1779.407
     3746.949     10055.236    1743.683      3801.038     10086.368    1790.628
     3890.825     10137.302    1752.134      3944.437     10172.113    1800.275
     4027.415     10214.783    1756.174      4078.967     10251.732    1804.082
     4165.729     10293.230    1764.260      4210.918     10328.539    1809.799
     4307.610     10374.546    1781.133      4355.248     10414.714    1835.009
     4448.619     10455.546    1803.918      4509.927     10510.166    1877.049
     4598.218     10544.854    1838.893      4634.672     10578.006    1886.797
     4729.203     10617.237    1851.573      4763.669     10648.681    1897.267
     4887.011     10713.877    1896.606      4914.268     10738.471    1930.933
     5032.756     10799.333    1918.221      5058.181     10822.000    1947.020
     5155.481     10864.369    1911.383      5191.875     10896.536    1947.767
     5282.167     10933.153    1907.715      5322.191     10968.267    1944.673
     5424.317     11015.614    1914.738      5463.369     11049.633    1951.378
     5566.901     11098.458    1919.045      5598.351     11125.672    1951.275
     5709.854     11181.604    1922.704      5742.908     11210.055    1959.897
     5854.708     11266.357    1929.721      5886.339     11293.502    1966.416
     5995.641     11347.722    1929.380      6024.231     11372.258    1966.139
      476.596      7982.632    1719.474       477.035      7981.867    1756.321
      616.353      8063.574    1723.151       618.113      8062.857    1761.284
      755.992      8144.533    1725.153       759.855      8143.867    1765.381
      895.617      8225.470    1727.704       901.804      8225.008    1764.597
     1034.757      8306.420    1728.600      1044.420      8306.179    1764.611
     1173.421      8387.352    1729.362      1187.581      8387.392    1764.879
     1311.612      8468.259    1730.011      1329.827      8468.610    1764.087
     1448.695      8549.115    1729.465      1472.829      8549.839    1767.007
     1586.090      8629.954    1730.255      1611.998      8630.933    1765.622
     1722.920      8710.747    1730.385      1752.470      8712.050    1765.803
     1861.684      8791.601    1732.327      1898.304      8793.432    1771.081
     2002.364      8872.542    1735.921      2039.620      8874.634    1771.717
     2144.396      8953.564    1740.077      2184.014      8956.062    1776.049
     2286.152      9034.578    1742.513      2326.482      9037.454    1777.533
     2427.280      9115.552    1742.502      2462.506      9118.430    1770.810
     2570.132      9196.691    1742.307      2615.363      9201.000    1775.090
     2702.258      9276.682    1734.481      2759.238      9283.138    1771.279
     2838.479      9356.834    1731.035      2895.831      9364.646    1763.560
     2970.604      9435.988    1726.528      3041.217      9447.576    1763.733
     3100.093      9513.719    1720.104      3164.659      9526.835    1755.062
     3244.493      9593.707    1720.850      3311.015      9610.721    1758.359
     3390.822      9674.260    1722.023      3450.232      9693.378    1758.507
     3533.185      9753.639    1721.670      3585.943      9774.762    1758.748
     3672.864      9831.747    1723.161      3728.969      9859.100    1765.990
     3818.398      9913.037    1731.794      3883.812      9950.817    1784.176
     3965.029      9996.100    1743.288      4022.921     10034.573    1791.451
     4100.697     10072.228    1747.327      4158.210     10115.138    1796.803
     4240.879     10151.476    1756.936      4293.878     10195.250    1807.274
     4390.782     10239.727    1781.696      4433.586     10278.222    1829.287
     4521.600     10311.450    1792.977      4597.114     10383.352    1882.958
     4686.269     10416.063    1847.449      4720.570     10449.418    1891.764
     4826.297     10496.695    1874.063      4857.243     10526.440    1914.591
     4978.404     10588.142    1912.521      5004.176     10612.090    1943.785
     5110.869     10661.153    1919.401      5142.088     10689.312    1952.460
     5232.140     10724.704    1912.470      5267.685     10756.176    1945.596
     5361.052     10795.455    1910.728      5399.250     10828.862    1944.493
     5503.199     10877.908    1916.695      5542.536     10911.962    1953.404
     5644.721     10959.834    1919.252      5680.449     10990.462    1956.526
     5785.836     11041.422    1920.266      5819.774     11070.258    1959.329
     5931.462     11126.804    1927.984      5963.832     11154.134    1965.478
     6072.880     11208.589    1927.632      6102.197     11233.269    1965.220
      556.030      7845.049    1715.701       556.534      7844.170    1752.977
      695.578      7926.033    1716.640       697.697      7925.183    1756.981
      834.887      8006.994    1717.809       838.870      8006.321    1754.574
      974.454      8087.882    1722.274       981.526      8087.367    1759.764
     1114.870      8168.773    1729.159      1125.147      8168.529    1762.984
     1254.122      8249.727    1731.188      1267.002      8249.770    1759.292
     1391.192      8330.636    1729.712      1408.759      8330.973    1757.919
     1527.945      8411.492    1728.918      1552.018      8412.196    1760.948
     1662.621      8492.245    1726.445      1689.481      8493.219    1758.180
     1798.741      8573.014    1726.350      1828.633      8574.259    1758.167
     1936.784      8653.840    1728.094      1978.583      8655.787    1768.622
     2075.226      8734.662    1730.332      2117.718      8736.856    1768.674
     2217.438      8815.667    1735.105      2259.628      8818.085    1771.590
     2363.320      8896.913    1740.650      2411.563      8900.004    1780.183
     2512.231      8978.448    1744.705      2557.306      8981.720    1778.176
     2657.155      9059.821    1742.652      2705.691      9063.882    1774.812
     2791.788      9140.323    1733.865      2849.005      9145.974    1767.560
     2922.353      9220.135    1725.415      2987.785      9227.936    1757.578
     3047.780      9298.671    1717.419      3130.684      9310.665    1753.286
     3183.500      9377.760    1713.906      3257.897      9391.232    1747.488
     3325.918      9457.483    1713.734      3403.701      9475.485    1750.387
     3468.741      9537.012    1713.099      3536.667      9557.158    1749.098
     3607.633      9614.860    1711.058      3675.194      9640.318    1753.194
     3745.925      9691.690    1712.611      3807.714      9720.713    1755.100
     3888.816      9770.423    1719.597      3963.112      9812.911    1774.190
     4034.453      9851.512    1729.835      4102.236      9897.402    1782.712
     4173.288      9928.540    1736.107      4232.248      9974.597    1784.245
     4316.962     10009.671    1747.401      4373.220     10059.559    1799.269
     4459.438     10090.819    1761.742      4506.507     10137.027    1814.396
     4593.632     10164.480    1774.460      4685.946     10261.891    1889.011
     4720.313     10231.014    1781.072      4815.534     10333.724    1904.316
     4930.415     10386.116    1900.483      4959.686     10416.504    1938.889
     5066.908     10460.825    1919.479      5095.166     10488.292    1953.213
     5187.181     10521.411    1915.069      5221.433     10552.951    1949.975
     5312.049     10587.902    1913.931      5352.156     10623.593    1949.589
     5444.319     10661.587    1915.875      5482.390     10694.772    1948.593
     5583.637     10741.560    1919.481      5622.118     10774.631    1955.444
     5723.308     10821.900    1919.799      5761.251     10854.089    1960.247
     5867.601     10906.165    1923.859      5902.946     10935.794    1965.788
     6012.657     10991.009    1930.888      6046.177     11018.841    1970.090
     6154.216     11072.904    1930.545      6184.622     11098.000    1969.948
      635.491      7707.418    1713.703       636.032      7706.473    1749.937
      774.880      7788.455    1712.497       776.938      7787.649    1747.235
      914.330      7869.356    1716.201       918.235      7868.718    1748.416
     1053.203      7950.294    1717.069      1060.172      7949.809    1750.391
     1192.661      8031.179    1722.107      1203.292      8030.942    1753.731
     1331.747      8112.092    1725.935      1344.583      8112.142    1750.958
     1469.806      8192.997    1727.404      1486.880      8193.321    1751.557
     1609.716      8273.946    1730.775      1636.785      8274.709    1762.411
     1747.182      8354.831    1731.322      1776.245      8355.826    1762.040
     1879.792      8435.517    1727.577      1909.806      8436.676    1756.990
     2016.800      8516.338    1728.583      2058.812      8518.120    1767.074
     2152.792      8597.083    1728.889      2201.033      8599.322    1770.810
     2295.306      8678.111    1733.718      2342.731      8680.525    1773.451
     2439.953      8759.264    1737.068      2493.522      8762.279    1778.866
     2595.262      8841.125    1742.796      2646.468      8844.347    1778.244
     2737.369      8922.284    1735.369      2793.172      8926.261    1769.371
     2878.699      9003.442    1727.548      2936.452      9008.166    1758.393
     3007.048      9083.413    1715.943      3074.882      9089.998    1745.854
     3134.969      9162.681    1707.449      3209.749      9171.957    1739.016
     3277.967      9243.372    1708.276      3356.695      9255.866    1740.659
     3417.192      9323.243    1708.620      3493.299      9338.840    1740.270
     3545.939      9399.802    1703.973      3617.187      9418.803    1737.186
     3685.412      9477.792    1704.481      3757.237      9502.561    1743.590
     3825.942      9555.525    1708.266      3893.995      9585.270    1749.623
     3970.165      9634.577    1715.909      4048.604      9677.733    1768.321
     4112.943      9713.116    1723.131      4186.194      9762.969    1776.856
     4252.312      9789.565    1728.410      4316.533      9841.880    1779.374
     4396.792      9870.722    1738.208      4453.396      9924.662    1790.391
     4537.833      9949.681    1748.166      4579.130      9994.718    1795.813
     4672.097     10020.244    1756.051      4713.300     10072.383    1812.713
     4796.909     10082.852    1761.993      4897.525     10213.399    1900.102
     5012.264     10256.544    1894.157      5040.766     10289.545    1932.608
     5146.380     10325.459    1911.322      5180.698     10360.578    1952.494
     5269.547     10387.237    1912.700      5309.656     10425.015    1952.961
     5397.433     10455.966    1916.624      5441.478     10495.350    1954.812
     5528.813     10528.753    1919.398      5574.226     10568.102    1957.790
     5661.750     10603.249    1918.475      5711.154     10645.240    1964.724
     5808.998     10689.958    1927.270      5850.391     10724.587    1971.729
     5953.689     10774.433    1932.431      5988.552     10803.186    1974.151
     6097.055     10857.775    1936.891      6131.119     10885.529    1976.793