NOECHO

-- =============================================================================
-- 
-- Exported from Reek_base_sim
-- 
-- Exported by user asny from RMS11 at 2020-02-19 16:32:40
-- 
-- =============================================================================

MAPUNITS
'METRES  ' /

MAPAXES
456514.885 5939173.599
456514.885 5927115.548
467218.210 5927115.548 /

GRIDUNIT
'METRES  ' '        ' /

SPECGRID
  40  64  14   1  F  /

GDORIENT
INC INC INC DOWN RIGHT /

COORD
        0.000      8808.128    1733.199         0.156      8807.788    1769.344
      139.962      8889.158    1733.827       140.841      8888.862    1769.658
      279.831      8970.172    1736.611       281.807      8969.887    1775.208
      419.743      9051.158    1742.192       423.179      9050.932    1780.456
      559.351      9132.147    1744.259       564.631      9132.025    1781.271
      698.562      9213.120    1744.575       705.990      9213.137    1781.115
      838.195      9294.081    1747.537       848.033      9294.267    1784.719
      977.841      9375.037    1749.773       990.384      9375.434    1788.412
     1116.144      9455.927    1746.624      1132.019      9456.604    1787.178
     1253.774      9536.743    1741.377      1273.300      9537.780    1784.610
     1391.642      9617.513    1737.131      1413.383      9618.906    1780.378
     1529.679      9698.234    1735.432      1554.868      9700.143    1779.151
     1667.355      9778.852    1735.104      1696.683      9781.461    1778.133
     1804.926      9859.356    1735.894      1839.101      9862.917    1779.017
     1942.857      9939.775    1737.719      1980.584      9944.387    1780.493
     2081.730     10020.171    1740.528      2122.244     10026.004    1784.095
     2219.616     10100.244    1742.665      2264.825     10107.944    1790.054
     2357.894     10180.149    1745.089      2406.699     10189.991    1795.564
     2496.932     10259.964    1748.560      2544.567     10271.318    1796.667
     2637.883     10340.056    1754.259      2685.228     10353.346    1801.663
     2780.885     10420.706    1761.360      2829.081     10436.558    1809.788
     2921.256     10500.473    1764.201      2970.330     10519.214    1811.669
     3059.669     10579.265    1762.819      3108.437     10600.636    1807.543
     3199.827     10658.614    1761.594      3246.145     10681.599    1803.637
     3340.689     10738.288    1760.527      3382.648     10761.566    1800.641
     3480.465     10817.342    1759.833      3517.605     10840.117    1798.281
     3619.831     10896.072    1761.127      3654.457     10919.304    1799.538
     3760.050     10975.381    1765.627      3794.809     11000.625    1806.928
     3901.049     11055.423    1773.186      3937.017     11083.354    1819.799
     4042.555     11136.144    1786.758      4078.468     11165.558    1836.104
     4186.834     11219.534    1810.931      4224.017     11251.235    1860.685
     4332.108     11304.213    1836.212      4373.997     11340.938    1890.238
     4469.108     11381.836    1848.258      4517.522     11425.042    1911.694
     4612.519     11465.279    1868.888      4659.055     11507.251    1932.857
     4759.096     11551.708    1895.590      4799.332     11588.249    1953.467
     4902.246     11635.098    1913.856      4938.510     11668.227    1966.429
     5041.994     11715.392    1919.659      5075.993     11746.658    1969.149
     5181.405     11795.368    1919.703      5211.429     11823.182    1966.630
     5322.124     11876.552    1919.733      5347.125     11899.904    1963.668
     5463.600     11958.446    1922.581      5485.395     11978.995    1965.537
     5604.916     12040.204    1922.412      5623.641     12058.051    1965.449
       79.447      8670.492    1733.223        79.629      8670.171    1769.396
      219.436      8751.523    1733.858       220.293      8751.244    1769.729
      359.360      8832.535    1736.666       361.286      8832.262    1775.227
      499.405      8913.517    1742.211       502.806      8913.302    1780.469
      639.252      8994.508    1744.306       644.492      8994.397    1781.297
      778.766      9075.494    1744.645       786.088      9075.519    1781.151
      918.543      9156.470    1747.606       928.252      9156.662    1784.766
     1058.167      9237.438    1749.774      1070.652      9237.836    1788.417
     1196.501      9318.341    1746.643      1212.121      9319.003    1787.177
     1334.250      9399.178    1741.419      1353.028      9400.161    1784.605
     1472.112      9479.967    1737.206      1492.653      9481.254    1780.389
     1610.281      9560.718    1735.532      1633.990      9562.472    1779.155
     1748.566      9641.416    1735.199      1776.499      9643.836    1778.126
     1887.060      9722.060    1736.009      1919.680      9725.361    1779.008
     2026.007      9802.667    1737.853      2062.036      9806.940    1780.496
     2165.533      9883.255    1740.666      2204.657      9888.721    1784.144
     2303.711      9963.522    1742.845      2348.292      9970.893    1790.153
     2442.606     10043.726    1745.328      2491.343     10053.277    1795.640
     2582.460     10123.954    1748.909      2629.955     10134.972    1796.721
     2723.928     10204.464    1754.732      2770.972     10217.342    1801.915
     2867.113     10285.490    1761.711      2914.918     10300.858    1810.012
     3007.872     10365.776    1764.304      3055.690     10383.669    1811.618
     3146.965     10445.283    1762.883      3193.003     10465.104    1807.401
     3287.628     10525.337    1761.710      3330.456     10546.272    1803.609
     3428.493     10605.492    1760.594      3466.479     10626.306    1800.649
     3568.036     10684.888    1759.911      3601.171     10705.010    1798.383
     3707.105     10763.884    1761.387      3738.058     10784.501    1799.802
     3846.472     10843.000    1766.002      3878.000     10865.786    1807.380
     3985.896     10922.167    1773.622      4018.644     10947.516    1820.085
     4126.069     11002.029    1787.408      4158.469     11028.498    1836.349
     4269.146     11084.537    1811.555      4302.061     11112.526    1860.508
     4412.642     11167.727    1836.338      4449.982     11200.360    1889.496
     4549.332     11245.108    1848.355      4593.392     11284.270    1911.207
     4692.440     11328.283    1869.009      4735.339     11366.773    1932.447
     4838.142     11413.896    1895.507      4875.938     11447.994    1952.942
     4980.734     11496.757    1913.744      5016.057     11528.777    1966.255
     5120.805     11577.343    1919.651      5154.287     11607.864    1969.224
     5261.075     11658.111    1919.723      5290.719     11685.307    1966.785
     5402.441     11739.888    1919.781      5427.200     11762.772    1963.918
     5544.048     11821.899    1922.617      5565.909     11842.284    1965.740
     5684.963     11903.278    1922.448      5704.135     11921.340    1965.644
      158.886      8532.899    1731.737       159.089      8532.544    1766.841
      298.822      8613.924    1732.180       299.681      8613.636    1765.513
      438.610      8694.937    1733.064       440.811      8694.625    1773.683
      578.821      8775.890    1740.472       582.572      8775.658    1778.877
      718.453      8856.882    1740.402       724.421      8856.766    1778.768
      858.045      8937.861    1741.166       866.115      8937.900    1778.035
      997.789      9018.835    1744.383      1007.927      9019.042    1779.806
     1138.160      9099.827    1749.253      1151.971      9100.266    1787.976
     1275.720      9180.709    1745.012      1292.244      9181.392    1784.194
     1413.343      9261.546    1740.554      1432.599      9262.517    1781.582
     1550.444      9342.301    1735.752      1572.576      9343.625    1779.228
     1687.959      9423.015    1733.368      1713.910      9424.832    1778.330
     1826.552      9503.743    1733.247      1856.872      9506.215    1777.359
     1965.719      9584.462    1734.346      1999.302      9587.649    1776.798
     2104.496      9665.073    1735.404      2140.791      9669.101    1776.754
     2244.188      9745.701    1738.093      2283.555      9750.848    1779.570
     2381.043      9825.802    1738.464      2427.677      9833.026    1784.496
     2520.259      9906.064    1740.654      2573.173      9915.806    1790.650
     2659.219      9986.091    1742.346      2707.967      9996.749    1787.287
     2802.303     10066.944    1748.307      2850.026     10079.306    1792.564
     2948.196     10148.747    1756.689      2998.405     10164.098    1804.063
     3089.111     10229.194    1758.951      3138.035     10246.712    1805.066
     3227.008     10308.339    1756.530      3274.333     10327.962    1801.303
     3368.131     10388.633    1756.361      3410.234     10408.592    1797.555
     3508.289     10468.443    1755.601      3548.570     10490.000    1798.372
     3647.537     10547.663    1755.620      3681.024     10567.666    1794.803
     3785.519     10625.923    1756.517      3815.966     10646.001    1794.350
     3924.785     10704.882    1761.689      3956.121     10727.418    1802.465
     4064.330     10784.075    1770.949      4098.753     10810.679    1819.164
     4201.067     10861.108    1781.265      4233.925     10887.937    1830.524
     4346.138     10945.197    1809.199      4376.951     10971.359    1855.477
     4494.440     11032.542    1842.070      4530.391     11063.858    1893.965
     4625.388     11104.913    1846.629      4669.694     11144.073    1909.914
     4769.097     11188.603    1868.280      4811.716     11226.518    1929.859
     4920.013     11278.817    1901.592      4958.886     11313.479    1957.197
     5062.632     11361.673    1919.005      5098.367     11393.597    1968.287
     5198.197     11438.228    1918.444      5233.266     11469.646    1966.811
     5337.592     11518.197    1916.565      5368.786     11546.262    1962.610
     5478.229     11599.277    1914.712      5502.512     11621.245    1954.528
     5620.282     11681.643    1917.772      5642.801     11702.160    1957.736
     5761.422     11763.183    1917.594      5781.339     11781.496    1957.555
      238.324      8395.308    1729.795       238.613      8394.802    1773.931
      378.195      8476.333    1729.763       379.388      8475.916    1772.576
      517.894      8557.337    1730.284       520.339      8556.981    1771.705
      657.863      8638.288    1735.246       662.057      8638.025    1773.928
      797.201      8719.268    1734.414       803.473      8719.146    1770.384
      936.641      8800.229    1735.807       945.496      8800.272    1771.507
     1075.362      8881.171    1736.537      1086.876      8881.401    1771.922
     1215.464      8962.137    1741.832      1230.080      8962.585    1777.997
     1354.680      9043.072    1743.243      1372.770      9043.788    1781.283
     1492.518      9123.927    1740.714      1513.184      9124.915    1779.756
     1631.495      9204.803    1740.121      1659.350      9206.372    1788.436
     1768.073      9285.495    1735.991      1800.701      9287.633    1786.290
     1905.850      9366.192    1734.283      1938.598      9368.681    1777.970
     2043.643      9446.816    1733.167      2078.774      9449.913    1774.866
     2181.267      9527.321    1732.693      2214.953      9530.791    1768.943
     2323.256      9608.215    1737.408      2365.770      9613.376    1778.931
     2461.858      9688.635    1738.599      2512.792      9695.974    1784.194
     2596.542      9768.222    1735.781      2655.937      9778.410    1785.791
     2737.664      9848.665    1737.866      2795.800      9860.538    1785.396
     2883.011      9930.043    1743.454      2935.167      9942.719    1786.585
     3025.638     10010.911    1747.144      3070.768     10023.940    1785.987
     3167.396     10091.556    1749.723      3211.995     10106.758    1788.854
     3310.124     10172.603    1752.208      3362.824     10193.604    1799.857
     3452.809     10253.807    1755.012      3497.846     10274.534    1797.868
     3589.953     10332.333    1753.473      3634.493     10355.713    1799.267
     3729.980     10412.113    1756.434      3773.528     10437.876    1805.324
     3867.936     10490.503    1758.943      3907.122     10516.298    1805.302
     4008.238     10570.349    1766.653      4044.792     10596.753    1811.773
     4146.257     10648.543    1775.838      4182.876     10677.116    1824.242
     4289.641     10731.167    1797.722      4328.251     10763.018    1852.574
     4434.122     10815.150    1825.549      4466.619     10842.926    1872.928
     4570.253     10892.119    1841.307      4603.218     10920.909    1888.323
     4706.426     10969.103    1854.353      4743.231     11001.591    1905.701
     4856.793     11058.713    1885.363      4892.343     11090.182    1933.843
     5005.934     11147.286    1913.752      5041.186     11178.463    1959.231
     5139.383     11221.997    1917.325      5174.716     11253.202    1960.923
     5274.058     11297.813    1915.478      5310.627     11330.095    1961.084
     5417.407     11381.291    1918.587      5448.334     11408.622    1960.203
     5555.891     11460.464    1913.861      5581.196     11482.892    1951.487
     5698.156     11542.983    1916.959      5722.465     11564.632    1955.528
     5839.395     11624.587    1916.774      5860.986     11643.957    1955.331
      317.783      8257.682    1729.879       318.125      8257.084    1776.365
      457.761      8338.670    1733.162       459.261      8338.132    1782.251
      597.379      8419.707    1730.424       600.260      8419.279    1774.663
      736.624      8500.705    1728.251       741.668      8500.384    1769.493
      875.647      8581.661    1727.995       883.714      8581.498    1768.274
     1014.449      8662.596    1728.839      1025.159      8662.640    1765.916
     1153.216      8743.519    1731.244      1166.621      8743.771    1766.640
     1291.437      8824.418    1733.093      1307.766      8824.891    1768.219
     1431.010      8905.344    1737.042      1455.017      8906.237    1780.998
     1571.807      8986.321    1741.199      1598.091      8987.496    1784.034
     1711.624      9067.254    1742.229      1743.718      9068.933    1789.836
     1849.368      9148.048    1739.972      1886.467      9150.296    1789.493
     1985.215      9228.658    1735.831      2019.541      9231.060    1776.877
     2122.647      9309.287    1734.168      2156.355      9312.019    1771.097
     2261.545      9389.953    1734.696      2297.961      9393.400    1771.218
     2402.461      9470.759    1737.366      2445.459      9475.558    1775.718
     2537.407      9550.748    1734.324      2589.999      9557.723    1776.390
     2676.682      9631.090    1734.110      2739.301      9640.989    1780.408
     2818.257      9711.697    1734.646      2885.804      9724.436    1782.650
     2960.587      9792.413    1735.419      3016.206      9804.954    1775.409
     3100.005      9872.333    1734.533      3149.268      9885.631    1772.067
     3240.932      9952.444    1735.878      3290.203      9968.316    1775.067
     3385.299     10033.722    1740.023      3433.360     10052.060    1780.738
     3529.414     10115.227    1745.593      3582.158     10138.800    1793.380
     3672.033     10196.369    1751.347      3725.594     10224.064    1803.233
     3814.447     10277.676    1758.930      3865.348     10307.714    1812.065
     3950.969     10355.398    1761.858      4000.667     10388.358    1816.193
     4090.055     10434.529    1769.776      4131.314     10464.819    1816.878
     4227.990     10512.705    1780.866      4266.699     10543.661    1827.732
     4379.093     10602.071    1814.070      4422.183     10638.600    1869.558
     4520.480     10683.812    1838.874      4558.092     10716.612    1891.037
     4645.294     10750.901    1840.370      4683.224     10784.449    1893.306
     4790.208     10835.687    1867.309      4828.268     10869.446    1918.428
     4948.878     10932.676    1907.834      4981.245     10961.302    1948.450
     5086.433     11010.944    1918.345      5122.942     11043.083    1960.186
     5213.068     11079.686    1913.129      5250.921     11112.844    1954.271
     5352.087     11159.358    1915.518      5391.220     11193.494    1959.203
     5497.162     11244.310    1920.111      5529.100     11272.094    1959.305
     5634.760     11322.750    1914.797      5664.912     11348.967    1955.771
     5777.274     11405.459    1918.034      5805.510     11430.059    1958.581
     5918.508     11487.050    1917.851      5943.714     11509.118    1958.482
      397.236      8120.065    1727.460       397.594      8119.439    1770.471
      537.282      8201.018    1733.249       538.786      8200.476    1777.293
      676.897      8282.070    1729.778       679.899      8281.619    1770.558
      816.587      8363.045    1730.609       821.089      8362.754    1762.754
      955.658      8444.024    1729.281       964.018      8443.847    1765.101
     1093.815      8524.975    1727.808      1104.193      8525.003    1758.377
     1232.963      8605.909    1731.331      1246.182      8606.135    1761.340
     1370.149      8686.791    1731.485      1390.317      8687.333    1769.374
     1508.439      8767.676    1734.033      1534.516      8768.574    1775.651
     1649.984      8848.677    1739.844      1680.218      8849.921    1782.182
     1784.717      8929.368    1734.708      1816.333      8930.882    1774.710
     1925.690      9010.316    1737.246      1963.652      9012.415    1780.998
     2064.022      9091.097    1736.648      2106.165      9093.780    1781.367
     2201.541      9171.764    1735.264      2241.335      9174.694    1774.985
     2341.530      9252.554    1736.390      2380.555      9255.907    1772.369
     2483.210      9333.473    1738.011      2529.664      9338.178    1775.413
     2618.625      9413.650    1733.723      2679.970      9421.044    1777.323
     2759.103      9494.284    1732.622      2824.678      9503.723    1774.831
     2892.201      9573.571    1726.219      2957.576      9584.803    1766.023
     3030.547      9653.298    1722.595      3088.663      9665.303    1758.323
     3175.613      9734.285    1723.670      3230.503      9747.996    1759.735
     3319.158      9814.996    1726.089      3371.270      9830.740    1762.726
     3460.412      9894.974    1727.941      3515.270      9914.930    1770.507
     3601.417      9974.722    1732.180      3652.170      9996.742    1774.981
     3744.909     10055.641    1739.821      3804.456     10086.089    1793.292
     3891.884     10139.039    1752.857      3946.743     10171.587    1805.651
     4030.909     10218.170    1759.962      4084.967     10254.719    1814.184
     4170.958     10297.935    1770.284      4217.842     10333.458    1819.816
     4310.149     10377.099    1784.292      4354.976     10414.439    1835.218
     4450.801     10457.773    1806.053      4512.496     10512.552    1879.438
     4599.464     10546.190    1839.914      4639.057     10582.232    1893.034
     4729.426     10617.606    1850.643      4767.355     10652.253    1902.622
     4881.259     10708.857    1888.343      4914.383     10738.730    1931.111
     5028.878     10796.027    1913.090      5059.905     10823.612    1948.832
     5154.913     10864.068    1909.874      5193.459     10897.965    1949.322
     5288.990     10939.385    1912.085      5332.125     10976.971    1953.753
     5428.633     11019.624    1913.877      5471.027     11056.271    1956.844
     5571.780     11102.893    1915.290      5611.127     11136.678    1960.198
     5711.796     11183.465    1912.954      5750.217     11216.302    1961.779
     5855.311     11267.012    1917.259      5889.811     11296.450    1963.068
     5996.623     11348.661    1917.011      6027.591     11375.136    1963.034
      476.671      7982.479    1722.028       477.025      7981.860    1759.788
      616.455      8063.489    1722.692       617.945      8062.956    1761.339
      756.105      8144.476    1724.199       759.375      8143.987    1763.094
      895.883      8225.427    1727.105       901.123      8225.086    1759.718
     1035.857      8306.383    1729.961      1044.343      8306.194    1761.349
     1174.560      8387.359    1729.770      1185.852      8387.371    1758.449
     1312.657      8468.301    1730.849      1326.830      8468.514    1759.025
     1449.870      8549.198    1731.781      1468.849      8549.659    1763.509
     1587.998      8630.094    1734.577      1608.067      8630.722    1762.985
     1725.618      8710.955    1735.428      1759.049      8712.198    1776.422
     1863.126      8791.778    1734.655      1899.038      8793.326    1774.180
     1999.968      8872.526    1732.743      2042.797      8874.649    1775.948
     2142.212      8953.518    1736.317      2189.438      8956.210    1780.823
     2282.614      9034.402    1737.681      2335.860      9037.910    1785.387
     2423.275      9115.291    1738.261      2469.150      9118.812    1776.118
     2565.137      9196.276    1737.411      2619.055      9201.148    1776.198
     2699.792      9276.514    1730.628      2771.467      9284.246    1775.887
     2832.780      9356.269    1723.842      2906.010      9365.762    1764.442
     2965.276      9435.519    1717.092      3030.424      9445.590    1750.380
     3101.529      9514.767    1711.507      3166.721      9526.939    1745.567
     3243.218      9594.581    1709.519      3306.093      9608.960    1744.636
     3391.135      9675.861    1713.148      3449.208      9692.175    1748.636
     3528.803      9754.089    1712.507      3584.974      9773.452    1751.035
     3669.493      9832.772    1716.675      3726.148      9856.577    1759.459
     3813.594      9912.839    1724.946      3882.182      9947.583    1781.510
     3965.672      9998.144    1742.515      4024.268     10033.330    1794.777
     4107.458     10078.479    1752.970      4168.792     10121.302    1809.820
     4251.869     10161.255    1768.000      4307.857     10205.921    1823.599
     4395.344     10244.223    1786.956      4441.430     10285.185    1838.211
     4524.932     10314.848    1796.389      4597.403     10383.942    1882.438
     4687.066     10417.050    1848.539      4721.088     10450.322    1893.380
     4826.805     10497.356    1874.833      4857.939     10527.429    1916.869
     4974.586     10584.762    1907.255      5005.732     10613.767    1946.016
     5105.308     10656.283    1911.854      5138.951     10686.589    1948.049
     5227.880     10721.147    1906.115      5270.207     10758.455    1945.607
     5361.743     10796.351    1907.819      5409.114     10837.486    1949.512
     5505.379     10880.085    1912.314      5554.737     10922.440    1958.901
     5647.410     10962.417    1911.793      5693.820     11001.817    1962.303
     5787.868     11043.409    1909.670      5830.521     11079.299    1961.746
     5933.636     11128.833    1916.824      5971.519     11160.527    1964.276
     6074.943     11210.481    1916.466      6109.138     11239.043    1964.198
      556.112      7844.884    1716.824       556.457      7844.281    1750.627
      695.840      7925.880    1718.104       697.167      7925.414    1748.586
      835.359      8006.874    1719.350       837.924      8006.497    1746.266
      974.577      8087.847    1720.155       980.766      8087.445    1754.209
     1114.541      8168.777    1724.626      1124.426      8168.544    1756.982
     1254.975      8249.739    1729.720      1266.953      8249.731    1756.733
     1391.788      8330.687    1728.936      1405.565      8330.862    1753.580
     1529.599      8411.609    1731.837      1548.040      8412.002    1759.906
     1666.472      8492.490    1733.312      1692.274      8493.200    1766.481
     1807.029      8573.464    1737.857      1841.903      8574.602    1776.482
     1945.447      8654.361    1737.905      1986.220      8655.897    1778.223
     2076.444      8734.912    1730.283      2122.938      8736.920    1772.347
     2214.383      8815.674    1729.879      2265.662      8818.223    1773.084
     2361.102      8896.883    1735.975      2417.321      8900.112    1780.498
     2507.496      8978.165    1738.670      2566.147      8982.086    1780.888
     2651.683      9059.401    1736.510      2705.355      9063.617    1770.946
     2784.647      9139.704    1726.431      2849.289      9145.764    1763.075
     2918.285      9219.795    1719.078      2998.516      9228.948    1757.550
     3048.346      9299.060    1711.156      3120.652      9308.990    1742.716
     3182.067      9378.168    1704.488      3250.931      9389.647    1736.079
     3321.632      9457.647    1702.005      3395.738      9472.960    1737.922
     3463.729      9537.259    1702.234      3528.348      9553.919    1736.762
     3597.698      9613.907    1700.284      3672.255      9637.959    1744.878
     3739.540      9692.089    1704.939      3810.289      9720.566    1752.066
     3884.696      9771.445    1712.974      3956.729      9807.377    1767.257
     4033.965      9853.770    1726.970      4091.865      9889.013    1775.205
     4173.171      9930.563    1734.704      4235.573      9976.039    1789.098
     4321.598     10014.875    1751.845      4380.019     10064.934    1807.778
     4464.496     10096.258    1767.744      4512.907     10143.442    1821.613
     4597.587     10168.653    1779.184      4684.401     10261.079    1886.086
     4722.672     10233.199    1784.156      4813.094     10331.835    1902.845
     4930.620     10386.644    1902.271      4958.066     10415.359    1939.123
     5067.140     10461.257    1919.763      5095.537     10488.980    1954.507
     5187.441     10521.773    1913.218      5225.551     10556.857    1952.613
     5309.890     10586.175    1908.351      5359.547     10630.171    1951.899
     5442.642     10660.413    1909.351      5492.693     10703.706    1950.796
     5582.446     10740.869    1910.623      5628.369     10779.937    1952.001
     5725.667     10824.225    1911.100      5766.192     10858.204    1953.850
     5870.216     10908.638    1913.598      5909.745     10941.359    1960.963
     6015.191     10993.330    1920.200      6052.053     11023.554    1964.495
     6156.312     11074.823    1919.859      6189.696     11102.054    1964.388
      635.564      7707.270    1712.667       635.889      7706.701    1743.160
      775.075      7788.319    1710.891       776.245      7787.921    1735.166
      914.481      7869.287    1713.870       917.283      7868.886    1740.304
     1053.591      7950.247    1715.725      1059.133      7949.891    1743.359
     1193.101      8031.177    1719.383      1202.836      8030.937    1748.480
     1332.208      8112.128    1722.472      1344.196      8112.095    1747.205
     1472.620      8193.097    1729.421      1487.144      8193.240    1753.295
     1610.802      8274.052    1733.291      1631.220      8274.414    1762.130
     1752.833      8355.086    1740.858      1780.911      8355.734    1774.266
     1888.517      8435.970    1739.295      1920.360      8436.836    1772.112
     2022.508      8516.763    1735.183      2063.162      8518.032    1772.443
     2157.015      8597.511    1730.503      2201.722      8599.112    1767.594
     2293.859      8678.277    1728.646      2346.483      8680.454    1768.346
     2438.337      8759.342    1731.188      2502.134      8762.413    1775.341
     2590.564      8840.890    1734.753      2652.615      8844.381    1774.027
     2735.792      8922.203    1730.339      2796.952      8926.229    1765.640
     2874.242      9003.129    1720.984      2942.861      9008.430    1756.238
     3005.920      9083.411    1711.046      3088.366      9091.084    1747.037
     3135.646      9162.995    1702.612      3225.978      9173.588    1741.506
     3273.549      9243.114    1699.799      3355.807      9255.148    1735.094
     3409.829      9322.574    1697.906      3495.595      9338.322    1735.577
     3540.085      9399.931    1694.327      3616.658      9417.726    1731.106
     3677.545      9477.674    1695.947      3747.978      9498.498    1733.607
     3818.696      9555.637    1700.901      3889.488      9582.203    1742.898
     3961.925      9633.589    1706.916      4042.566      9672.339    1761.724
     4105.670      9711.411    1714.587      4169.333      9750.424    1763.770
     4246.388      9787.298    1722.033      4308.378      9834.555    1773.697
     4395.442      9870.678    1737.057      4453.316      9924.292    1791.960
     4538.830      9951.078    1750.048      4584.534     10001.028    1802.519
     4673.541     10021.585    1758.498      4711.585     10070.698    1810.578
     4798.896     10084.681    1765.486      4895.743     10211.971    1899.345
     5009.060     10253.041    1891.221      5039.808     10288.911    1933.270
     5144.796     10324.011    1909.300      5177.463     10357.604    1949.266
     5267.942     10385.829    1908.372      5307.976     10423.532    1948.967
     5396.148     10454.980    1910.562      5445.804     10499.153    1952.712
     5528.739     10528.948    1912.632      5582.359     10574.988    1955.640
     5664.360     10605.812    1912.072      5710.830     10644.834    1952.827
     5811.831     10692.613    1918.307      5850.082     10724.165    1957.558
     5956.636     10777.098    1922.327      5990.215     10804.362    1961.689
     6099.581     10860.025    1926.388      6133.245     10887.013    1965.488