NOECHO

-- =============================================================================
-- 
-- Exported from Reek_base_sim
-- 
-- Exported by user asny from RMS11 at 2020-02-19 16:29:40
-- 
-- =============================================================================

MAPUNITS
'METRES  ' /

MAPAXES
456514.850 5939174.434
456514.850 5927115.549
467218.262 5927115.549 /

GRIDUNIT
'METRES  ' '        ' /

SPECGRID
  40  64  14   1  F  /

GDORIENT
INC INC INC DOWN RIGHT /

COORD
        0.000      8808.187    1732.558         0.251      8807.680    1771.260
      139.965      8889.218    1735.798       141.050      8888.752    1771.331
      279.807      8970.241    1739.320       282.023      8969.796    1773.032
      419.436      9051.252    1740.928       423.370      9050.844    1774.786
      559.075      9132.232    1742.403       564.923      9131.929    1774.503
      698.567      9213.206    1742.931       705.719      9213.057    1770.370
      837.771      9294.171    1743.560       847.728      9294.169    1772.343
      976.619      9375.110    1744.171       990.177      9375.319    1776.192
     1114.622      9455.996    1742.612      1131.131      9456.466    1776.782
     1252.969      9536.843    1741.915      1273.430      9537.681    1779.036
     1390.860      9617.614    1739.886      1415.765      9618.949    1779.427
     1528.838      9698.318    1738.706      1555.589      9700.114    1775.437
     1666.327      9778.902    1737.673      1695.947      9781.325    1772.888
     1803.847      9859.371    1737.021      1839.670      9862.899    1774.887
     1942.069      9939.775    1738.335      1984.305      9944.755    1778.329
     2080.762     10020.084    1740.181      2124.278     10026.225    1778.277
     2218.006     10099.974    1739.953      2263.717     10107.693    1779.335
     2356.502     10179.802    1741.010      2400.958     10188.774    1780.500
     2498.694     10260.238    1747.589      2543.310     10270.959    1788.305
     2642.759     10341.203    1757.877      2689.735     10354.576    1800.871
     2783.028     10421.088    1764.249      2830.869     10437.129    1807.131
     2921.097     10499.958    1765.724      2972.095     10519.901    1808.421
     3058.828     10578.296    1763.667      3113.072     10602.705    1809.021
     3199.655     10657.845    1762.042      3253.173     10685.118    1810.489
     3341.209     10737.880    1760.538      3390.190     10765.692    1808.668
     3480.559     10816.713    1757.972      3524.209     10843.973    1803.622
     3619.688     10895.340    1757.317      3661.086     10923.470    1803.375
     3759.268     10974.243    1759.883      3799.758     11003.896    1808.448
     3900.166     11054.232    1767.173      3937.231     11083.180    1815.340
     4041.466     11134.786    1781.725      4076.332     11163.488    1828.507
     4186.018     11218.412    1808.208      4219.641     11247.236    1850.479
     4332.423     11304.117    1835.395      4366.838     11334.474    1876.127
     4468.909     11381.292    1847.090      4508.624     11416.964    1893.683
     4612.009     11464.503    1866.550      4650.720     11499.648    1911.769
     4761.345     11553.519    1894.781      4796.953     11586.069    1933.972
     4905.187     11637.602    1913.252      4941.885     11671.340    1950.893
     5041.943     11715.175    1919.343      5079.835     11750.214    1957.920
     5181.033     11794.881    1923.337      5212.928     11824.555    1959.287
     5321.778     11876.121    1926.646      5349.750     11902.316    1963.840
     5462.585     11957.422    1930.027      5487.079     11980.528    1968.384
     5603.448     12038.774    1929.838      5624.589     12058.885    1968.175
       79.450      8670.547    1732.616        79.729      8670.059    1771.294
      219.449      8751.579    1735.838       220.497      8751.139    1771.364
      359.324      8832.602    1739.334       361.410      8832.191    1773.037
      499.029      8913.611    1740.964       502.720      8913.234    1774.790
      638.841      8994.589    1742.432       644.319      8994.313    1774.501
      778.618      9075.566    1742.967       785.276      9075.437    1770.412
      918.011      9156.542    1743.607       927.211      9156.550    1772.361
     1056.682      9237.492    1744.193      1069.226      9237.690    1776.192
     1194.620      9318.386    1742.675      1209.741      9318.817    1776.786
     1333.097      9399.250    1741.930      1351.811      9400.007    1779.026
     1471.354      9480.056    1739.938      1494.377      9481.266    1779.434
     1609.806      9560.815    1738.747      1634.793      9562.451    1775.443
     1747.980      9641.488    1737.699      1775.765      9643.701    1772.888
     1886.317      9722.092    1737.121      1919.867      9725.296    1774.892
     2025.302      9802.663    1738.472      2064.914      9807.188    1778.321
     2164.633      9883.171    1740.254      2205.965      9888.819    1778.232
     2302.728      9963.357    1740.083      2346.703      9970.552    1779.321
     2442.082     10043.560    1741.331      2484.684     10051.903    1780.521
     2585.035     10124.421    1748.166      2627.415     10134.322    1788.666
     2728.625     10205.551    1758.295      2774.396     10218.250    1801.124
     2868.937     10285.791    1764.507      2916.968     10301.533    1807.266
     3007.546     10365.248    1765.771      3058.116     10384.649    1808.443
     3145.916     10444.295    1763.707      3198.591     10467.631    1809.117
     3286.912     10524.371    1762.114      3338.061     10550.115    1810.591
     3428.520     10604.872    1760.476      3474.367     10630.648    1808.564
     3568.180     10684.341    1757.936      3608.674     10709.427    1803.649
     3707.189     10763.338    1757.436      3745.602     10789.272    1803.646
     3845.452     10841.712    1760.193      3883.250     10869.250    1808.766
     3984.602     10920.666    1767.598      4019.253     10947.623    1815.632
     4125.247     11000.894    1782.480      4157.106     11027.038    1828.797
     4269.652     11084.541    1809.170      4298.724     11109.392    1850.474
     4413.314     11167.930    1835.573      4442.838     11193.889    1875.451
     4548.861     11244.305    1847.147      4583.546     11275.342    1893.179
     4691.433     11327.040    1866.556      4725.277     11357.619    1911.096
     4839.370     11414.742    1894.477      4870.443     11442.976    1932.833
     4982.561     11498.200    1913.029      5016.207     11528.912    1950.341
     5120.178     11576.575    1919.312      5156.172     11609.592    1957.868
     5260.340     11657.272    1923.349      5291.079     11685.620    1959.428
     5401.856     11739.222    1926.684      5429.004     11764.408    1963.966
     5542.774     11820.627    1930.049      5567.124     11843.366    1968.482
     5683.264     11901.631    1929.859      5704.713     11921.818    1968.271
      158.871      8532.985    1729.067       159.199      8532.413    1769.557
      298.812      8613.995    1733.180       299.964      8613.505    1769.734
      438.674      8694.997    1737.910       440.956      8694.548    1773.003
      578.252      8776.004    1738.850       582.260      8775.604    1774.082
      718.103      8856.967    1740.854       724.049      8856.680    1774.453
      857.464      8937.945    1739.940       864.055      8937.828    1766.162
      996.523      9018.909    1740.394      1006.680      9018.927    1771.077
     1135.487      9099.852    1742.698      1149.072      9100.070    1776.354
     1272.535      9180.719    1740.057      1288.493      9181.165    1774.915
     1411.754      9261.604    1741.237      1431.781      9262.384    1779.451
     1549.704      9342.399    1738.861      1574.170      9343.625    1778.913
     1688.675      9423.196    1738.304      1714.408      9424.789    1774.332
     1827.059      9503.905    1737.044      1854.063      9505.924    1769.972
     1964.400      9584.446    1734.917      1997.218      9587.378    1770.927
     2104.644      9665.166    1737.221      2142.165      9669.162    1774.243
     2244.623      9745.797    1739.062      2283.834      9750.789    1774.131
     2380.387      9825.703    1736.318      2426.252      9832.706    1775.400
     2518.850      9905.747    1736.225      2564.710      9914.153    1775.964
     2663.415      9986.876    1743.625      2705.700      9996.163    1781.562
     2807.088     10067.975    1752.964      2853.695     10080.200    1793.365
     2949.282     10148.780    1759.823      3000.055     10164.626    1801.312
     3088.078     10228.392    1760.739      3137.604     10246.637    1800.203
     3225.585     10307.149    1757.839      3279.114     10330.118    1802.485
     3367.493     10387.644    1757.168      3419.307     10413.109    1804.800
     3508.840     10468.021    1755.862      3556.088     10494.135    1803.908
     3647.806     10547.097    1753.258      3687.283     10571.259    1796.649
     3785.352     10625.119    1751.732      3823.021     10650.339    1795.973
     3922.844     10702.872    1754.498      3962.389     10731.523    1804.285
     4062.634     10782.229    1764.494      4096.688     10808.635    1810.773
     4200.560     10860.192    1776.714      4234.043     10887.609    1825.033
     4347.980     10946.294    1808.232      4375.785     10970.003    1848.770
     4496.668     11034.077    1843.625      4523.723     11057.776    1881.732
     4625.488     11104.559    1846.919      4660.517     11135.729    1895.120
     4766.329     11185.722    1864.452      4799.691     11215.628    1909.276
     4921.184     11279.572    1901.076      4951.063     11306.435    1937.943
     5064.749     11363.330    1918.858      5095.061     11390.639    1952.000
     5196.191     11436.162    1917.798      5232.940     11469.354    1956.323
     5335.425     11516.008    1919.903      5366.732     11544.378    1955.497
     5477.114     11598.080    1922.498      5505.558     11623.962    1959.554
     5618.578     11679.954    1926.129      5645.273     11704.369    1964.845
     5759.291     11761.140    1925.918      5783.057     11783.016    1964.592
      238.317      8395.381    1728.236       238.712      8394.691    1771.781
      378.207      8476.402    1731.376       379.651      8475.772    1773.642
      518.006      8557.398    1735.863       520.893      8556.821    1777.073
      657.912      8638.357    1740.295       662.174      8637.931    1775.552
      797.612      8719.335    1740.964       803.553      8719.053    1772.781
      935.561      8800.340    1735.186       943.000      8800.212    1763.019
     1073.853      8881.277    1735.092      1086.189      8881.302    1769.905
     1213.052      8962.198    1738.970      1228.832      8962.445    1775.585
     1352.404      9043.113    1742.070      1373.169      9043.670    1783.787
     1491.344      9124.000    1742.652      1517.396      9124.964    1787.756
     1632.651      9204.972    1745.456      1657.258      9206.131    1781.886
     1771.612      9285.824    1744.018      1799.182      9287.417    1779.216
     1906.783      9366.375    1738.334      1934.004      9368.266    1769.218
     2045.075      9447.038    1736.833      2074.762      9449.493    1767.841
     2185.015      9527.774    1738.366      2214.124      9530.638    1765.974
     2322.934      9608.216    1737.735      2358.414      9612.388    1767.974
     2459.697      9688.324    1735.285      2503.344      9694.492    1769.776
     2601.483      9769.005    1737.286      2653.494      9777.856    1777.950
     2746.701      9850.371    1744.481      2791.052      9859.460    1779.421
     2885.586      9930.438    1748.250      2938.732      9943.538    1788.950
     3024.759     10010.296    1751.233      3074.394     10024.985    1787.730
     3166.422     10090.725    1753.412      3213.706     10107.418    1788.384
     3311.287     10172.486    1756.188      3363.152     10194.064    1797.138
     3454.456     10253.928    1757.631      3499.313     10275.546    1796.565
     3589.958     10331.529    1752.708      3635.385     10356.390    1795.916
     3730.272     10411.489    1753.315      3773.612     10437.945    1797.796
     3865.710     10488.245    1751.317      3906.492     10515.605    1796.233
     4006.555     10568.466    1759.426      4047.502     10598.292    1808.244
     4144.463     10646.562    1768.897      4177.588     10672.482    1811.818
     4289.916     10730.873    1793.682      4320.875     10756.461    1836.746
     4437.149     10817.264    1826.819      4462.403     10838.919    1863.061
     4573.928     10894.875    1846.328      4601.720     10919.265    1885.775
     4708.494     10970.470    1858.308      4739.489     10998.007    1901.101
     4855.121     11056.839    1883.613      4882.444     11081.215    1919.610
     5006.552     11147.551    1913.607      5034.744     11172.710    1946.525
     5140.397     11222.587    1918.402      5173.186     11251.829    1952.446
     5273.761     11297.216    1918.567      5310.807     11330.242    1955.916
     5412.895     11376.995    1919.944      5445.762     11406.309    1955.921
     5554.709     11459.165    1922.448      5585.190     11486.396    1960.035
     5696.355     11541.184    1926.078      5724.771     11566.647    1964.104
     5837.245     11622.521    1925.898      5862.683     11645.427    1963.914
      317.800      8257.712    1730.205       318.242      8256.941    1773.748
      457.769      8338.732    1733.580       459.368      8338.025    1776.315
      597.712      8419.721    1738.248       600.916      8419.075    1780.309
      737.502      8500.717    1740.420       742.508      8500.214    1779.042
      876.931      8581.714    1740.041       884.238      8581.367    1776.737
     1015.713      8662.700    1738.435      1025.540      8662.530    1772.525
     1153.737      8743.653    1737.414      1166.925      8743.673    1771.479
     1290.987      8824.555    1736.750      1307.875      8824.804    1772.253
     1430.992      8905.478    1741.343      1456.731      8906.126    1787.246
     1571.116      8986.408    1743.982      1599.958      8987.404    1787.729
     1712.661      9067.398    1746.834      1742.714      9068.712    1785.767
     1853.938      9148.394    1748.227      1885.756      9150.090    1784.192
     1990.671      9229.113    1744.526      2026.797      9231.418    1781.651
     2127.959      9309.785    1741.909      2160.201      9312.226    1773.073
     2264.779      9390.314    1739.837      2291.621      9392.730    1763.738
     2397.904      9470.298    1734.569      2433.036      9474.076    1762.485
     2539.285      9550.990    1735.062      2581.863      9556.497    1765.477
     2680.891      9631.679    1736.105      2734.135      9639.999    1772.440
     2824.308      9712.678    1740.679      2880.407      9723.292    1778.500
     2955.707      9791.011    1738.179      3009.370      9803.332    1773.794
     3092.933      9869.912    1738.360      3146.514      9884.851    1773.541
     3237.883      9950.766    1741.105      3291.537      9968.855    1777.658
     3385.252     10032.916    1744.627      3439.342     10054.726    1784.599
     3532.559     10115.860    1749.618      3583.541     10140.028    1790.859
     3673.962     10196.543    1751.778      3724.431     10224.081    1796.057
     3813.479     10276.250    1754.011      3862.079     10306.140    1799.850
     3946.350     10351.412    1752.056      3993.805     10383.699    1800.134
     4086.944     10431.475    1761.418      4125.875     10460.400    1804.404
     4225.392     10509.958    1773.559      4262.172     10539.517    1817.788
     4382.390     10604.312    1814.986      4417.725     10634.373    1860.437
     4523.595     10686.025    1842.003      4553.584     10712.254    1883.536
     4647.589     10752.428    1845.321      4682.064     10783.033    1893.769
     4789.001     10834.142    1868.692      4819.337     10861.195    1909.432
     4947.243     10930.888    1908.123      4972.734     10953.599    1939.582
     5089.029     11012.938    1922.745      5121.448     11041.741    1957.603
     5213.573     11079.729    1916.544      5246.251     11108.657    1948.173
     5348.149     11155.491    1916.818      5380.395     11183.937    1947.944
     5490.071     11237.756    1920.101      5520.011     11264.095    1951.930
     5632.445     11320.416    1922.900      5663.098     11347.342    1959.322
     5775.030     11403.251    1927.326      5804.267     11428.945    1964.193
     5916.100     11484.749    1927.139      5942.313     11507.846    1963.979
      397.223      8120.147    1725.642       397.690      8119.333    1767.482
      537.244      8201.095    1732.399       538.945      8200.343    1774.120
      677.167      8282.093    1736.238       680.485      8281.424    1776.579
      817.079      8363.075    1739.514       822.337      8362.549    1777.447
      956.445      8444.083    1739.548       963.923      8443.728    1774.692
     1094.857      8525.080    1737.600      1105.374      8524.894    1771.183
     1233.259      8606.030    1738.170      1248.252      8606.044    1773.103
     1371.338      8686.953    1739.214      1392.185      8687.233    1777.972
     1509.551      8767.849    1740.269      1537.596      8768.502    1783.889
     1648.424      8848.741    1741.222      1679.402      8849.726    1781.917
     1788.183      8929.646    1742.358      1820.736      8930.948    1778.904
     1932.289      9010.748    1747.325      1968.457      9012.503    1783.170
     2072.545      9091.688    1747.799      2107.981      9093.739    1780.339
     2209.262      9172.378    1745.039      2243.042      9174.693    1774.670
     2347.352      9253.082    1743.370      2381.329      9255.843    1771.137
     2484.342      9333.595    1739.743      2522.044      9337.250    1767.029
     2619.377      9413.720    1734.359      2666.672      9419.240    1764.484
     2759.034      9494.185    1733.389      2819.650      9502.759    1769.105
     2895.146      9573.890    1732.536      2963.241      9585.612    1771.794
     3020.993      9650.914    1726.350      3093.772      9666.289    1768.501
     3164.719      9730.886    1728.831      3220.923      9745.524    1762.071
     3310.386      9811.413    1730.015      3367.909      9829.828    1766.274
     3456.591      9892.469    1731.292      3519.083      9916.812    1774.577
     3605.876      9975.573    1737.661      3662.320     10001.886    1780.200
     3748.543     10056.378    1742.104      3804.717     10087.061    1787.585
     3889.914     10136.773    1747.752      3947.623     10172.847    1797.874
     4027.268     10214.632    1752.356      4082.160     10253.033    1803.463
     4166.511     10293.640    1761.930      4215.071     10331.097    1811.582
     4309.854     10376.086    1781.275      4355.886     10414.759    1833.456
     4452.162     10458.288    1806.395      4508.231     10508.395    1873.429
     4598.688     10544.918    1839.712      4636.435     10579.370    1890.350
     4727.629     10615.449    1851.619      4766.145     10650.706    1904.787
     4879.528     10706.851    1890.771      4910.854     10735.204    1930.983
     5029.005     10795.776    1917.577      5058.142     10821.842    1950.649
     5155.270     10863.958    1914.609      5193.518     10897.890    1952.233
     5284.821     10935.243    1913.474      5330.265     10975.272    1954.511
     5428.350     11018.910    1920.772      5468.351     11053.914    1958.078
     5567.596     11098.845    1920.639      5599.292     11126.410    1953.963
     5708.556     11180.283    1921.285      5742.918     11210.019    1961.691
     5852.450     11264.241    1926.742      5884.507     11291.907    1965.919
     5993.875     11346.047    1926.498      6022.717     11370.938    1965.743
      476.617      7982.635    1718.549       477.063      7981.855    1755.994
      616.463      8063.569    1724.863       618.117      8062.844    1762.667
      756.352      8144.516    1730.586       759.903      8143.809    1771.053
      896.564      8225.443    1737.089       902.382      8224.866    1776.566
     1035.871      8306.457    1737.697      1045.062      8306.022    1777.853
     1174.431      8387.452    1737.282      1186.070      8387.244    1771.194
     1312.293      8468.409    1737.035      1328.260      8468.411    1770.232
     1448.896      8549.315    1735.863      1473.337      8549.612    1775.627
     1586.114      8630.186    1735.976      1614.096      8630.778    1773.867
     1724.911      8711.066    1737.343      1756.866      8711.987    1773.946
     1862.651      8791.891    1737.150      1900.875      8793.267    1774.760
     2007.457      8872.978    1743.261      2049.113      8874.791    1779.800
     2151.796      8954.102    1747.680      2191.265      8956.145    1780.097
     2291.181      9034.986    1747.130      2323.382      9036.956    1772.534
     2435.309      9116.189    1748.797      2469.404      9118.654    1773.896
     2576.286      9197.220    1745.511      2622.823      9201.222    1775.796
     2705.645      9277.081    1734.841      2753.998      9282.090    1762.382
     2835.929      9356.579    1728.065      2899.590      9364.615    1760.754
     2970.005      9436.043    1726.097      3043.717      9447.407    1762.825
     3096.760      9513.410    1720.343      3176.965      9528.765    1761.974
     3242.863      9593.726    1722.831      3306.710      9609.081    1757.645
     3389.879      9674.462    1723.623      3452.767      9693.402    1760.687
     3530.500      9753.278    1720.226      3596.681      9777.983    1763.405
     3673.356      9832.775    1722.056      3740.132      9863.205    1769.051
     3820.004      9914.517    1730.181      3888.062      9951.666    1781.293
     3963.677      9995.469    1738.700      4025.440     10034.892    1788.719
     4100.827     10072.397    1744.466      4171.674     10123.993    1805.919
     4242.979     10152.995    1757.108      4306.069     10204.542    1817.846
     4393.820     10242.032    1784.319      4442.082     10285.397    1837.889
     4523.840     10313.024    1795.789      4596.169     10382.326    1881.826
     4685.938     10415.361    1848.972      4720.552     10449.226    1894.109
     4823.584     10493.744    1874.181      4863.209     10532.002    1927.249
     4974.326     10584.084    1911.626      5005.997     10613.617    1950.371
     5105.203     10655.784    1917.152      5138.040     10685.498    1951.746
     5227.059     10719.928    1911.419      5266.415     10754.891    1947.185
     5361.628     10795.693    1914.735      5410.092     10838.233    1956.118
     5503.399     10877.836    1919.361      5550.758     10919.001    1962.693
     5643.469     10958.526    1919.032      5683.024     10992.584    1960.875
     5785.998     11041.344    1920.728      5823.436     11073.305    1965.327
     5930.917     11126.160    1927.002      5965.697     11155.670    1969.274
     6072.658     11208.239    1926.722      6104.006     11234.758    1969.129
      556.063      7845.029    1715.769       556.534      7844.208    1753.911
      695.812      7925.979    1720.601       697.489      7925.260    1756.941
      835.345      8006.972    1723.044       838.923      8006.275    1761.662
      974.879      8087.922    1726.790       980.866      8087.342    1765.096
     1114.504      8168.865    1731.933      1124.540      8168.399    1772.393
     1253.995      8249.823    1735.919      1267.925      8249.574    1772.700
     1391.069      8330.790    1734.647      1409.527      8330.776    1768.762
     1527.410      8411.697    1733.720      1549.688      8411.933    1765.418
     1663.179      8492.549    1732.336      1689.330      8493.041    1763.391
     1802.146      8573.438    1734.066      1836.078      8574.300    1768.581
     1940.553      8654.296    1735.079      1981.184      8655.580    1771.104
     2081.430      8735.217    1738.197      2129.206      8737.034    1776.249
     2224.442      8816.228    1741.595      2268.333      8818.210    1774.299
     2371.112      8897.460    1745.630      2413.154      8899.702    1775.448
     2520.523      8978.974    1748.609      2564.786      8981.755    1777.754
     2659.574      9059.927    1741.855      2711.105      9063.765    1772.232
     2792.152      9140.296    1731.589      2855.939      9145.997    1764.669
     2926.888      9220.624    1726.425      2995.344      9228.144    1757.828
     3046.383      9298.574    1718.222      3137.828      9311.018    1758.917
     3179.936      9377.343    1715.575      3275.485      9393.679    1762.347
     3323.677      9457.270    1717.068      3404.408      9474.916    1758.968
     3467.389      9537.060    1716.287      3539.218      9557.080    1756.240
     3609.358      9616.204    1713.516      3684.095      9642.487    1759.023
     3744.994      9692.360    1710.978      3819.672      9725.042    1759.559
     3887.849      9770.945    1716.345      3962.715      9811.220    1768.559
     4033.379      9851.449    1725.830      4098.596      9893.728    1775.817
     4169.936      9926.240    1731.147      4240.793      9980.264    1789.838
     4316.496     10009.028    1746.393      4379.320     10064.307    1805.010
     4459.047     10089.882    1762.008      4510.685     10140.738    1819.617
     4594.072     10164.184    1776.636      4684.603     10260.591    1888.913
     4718.469     10228.253    1781.822      4816.776     10335.037    1908.535
     4927.375     10382.695    1899.983      4965.428     10422.380    1950.053
     5063.112     10456.880    1918.349      5096.874     10489.824    1958.484
     5182.273     10516.597    1913.261      5220.972     10552.345    1952.002
     5303.907     10580.352    1909.973      5352.651     10623.861    1951.819
     5443.120     10660.265    1917.803      5494.299     10705.020    1959.992
     5582.202     10740.070    1920.302      5630.165     10781.435    1964.002
     5722.419     10820.903    1919.986      5765.947     10857.975    1966.739
     5867.318     10905.714    1924.218      5905.276     10937.669    1970.571
     6012.280     10990.513    1930.326      6048.234     11020.500    1974.447
     6154.127     11072.670    1930.029      6186.515     11099.524    1974.333
      635.545      7707.362    1715.807       635.986      7706.592    1751.166
      775.087      7788.414    1715.258       776.885      7787.668    1752.586
      914.547      7869.380    1718.577       918.662      7868.606    1760.668
     1053.777      7950.339    1721.358      1060.492      7949.709    1761.595
     1192.750      8031.289    1725.113      1203.927      8030.783    1766.721
     1331.717      8112.229    1729.473      1347.053      8111.954    1766.294
     1469.777      8193.173    1731.599      1489.151      8193.142    1763.636
     1609.828      8274.119    1735.937      1635.543      8274.346    1768.280
     1748.036      8355.057    1736.689      1776.313      8355.509    1766.455
     1881.224      8435.876    1732.182      1914.074      8436.580    1762.532
     2018.751      8516.740    1732.691      2063.250      8517.917    1769.456
     2156.581      8597.575    1733.731      2202.209      8599.025    1767.853
     2296.133      8678.429    1734.390      2345.737      8680.304    1768.743
     2444.614      8759.649    1738.063      2498.388      8762.059    1772.918
     2600.185      8841.359    1742.076      2653.222      8844.167    1773.843
     2740.438      8922.400    1733.720      2796.055      8925.865    1763.897
     2881.011      9003.492    1725.570      2945.241      9008.188    1756.427
     3008.217      9083.458    1716.093      3083.663      9090.126    1748.453
     3131.439      9162.287    1709.077      3219.063      9172.410    1749.383
     3267.375      9241.766    1709.344      3367.987      9256.883    1758.678
     3404.837      9320.872    1709.542      3493.598      9338.190    1754.742
     3545.034      9399.899    1708.734      3618.890      9418.572    1747.859
     3686.352      9478.770    1707.103      3764.036      9503.896    1750.329
     3826.552      9556.839    1707.730      3908.301      9590.098    1755.842
     3965.044      9633.035    1709.847      4047.846      9675.731    1763.215
     4111.004      9712.673    1718.507      4183.330      9759.685    1771.342
     4249.439      9787.618    1724.434      4315.350      9840.057    1777.688
     4395.738      9869.390    1737.645      4454.511      9925.229    1792.405
     4538.405      9949.500    1750.323      4579.637      9994.978    1798.113
     4672.682     10019.759    1758.683      4709.171     10066.891    1809.703
     4796.600     10081.590    1764.614      4900.843     10217.852    1907.117
     5009.103     10252.607    1892.436      5041.750     10290.520    1936.249
     5140.546     10319.228    1906.613      5175.929     10355.561    1948.433
     5265.436     10383.078    1910.432      5310.580     10425.737    1954.372
     5395.229     10453.713    1916.580      5442.039     10495.686    1955.554
     5528.264     10528.009    1920.830      5579.200     10572.266    1962.243
     5661.716     10602.960    1920.040      5713.559     10647.158    1967.594
     5807.364     10688.363    1926.571      5849.993     10724.149    1972.884
     5952.551     10773.297    1932.234      5989.280     10803.704    1977.661
     6096.125     10856.845    1936.315      6131.983     10886.182    1980.498