NOECHO

-- =============================================================================
-- 
-- Exported from Reek_base_sim
-- 
-- Exported by user asny from RMS11 at 2020-02-19 15:55:26
-- 
-- =============================================================================

MAPUNITS
'METRES  ' /

MAPAXES
456514.872 5939173.416
456514.872 5927115.548
467218.321 5927115.548 /

GRIDUNIT
'METRES  ' '        ' /

SPECGRID
  40  64  14   1  F  /

GDORIENT
INC INC INC DOWN RIGHT /

COORD
        0.000      8808.142    1723.474         0.204      8807.724    1761.855
      140.042      8889.184    1726.018       140.959      8888.774    1760.091
      280.067      8970.204    1729.577       281.944      8969.776    1760.678
      420.050      9051.218    1732.318       423.305      9050.778    1762.628
      559.558      9132.262    1732.489       564.624      9131.839    1763.807
      698.910      9213.282    1735.363       705.691      9212.931    1766.187
      838.138      9294.282    1739.996       846.740      9294.022    1770.882
      977.050      9375.263    1743.410       988.954      9375.102    1778.869
     1115.888      9456.209    1745.125      1131.993      9456.229    1785.444
     1254.494      9537.112    1744.441      1274.739      9537.425    1787.946
     1393.162      9617.969    1742.508      1415.026      9618.622    1782.303
     1531.196      9698.740    1739.261      1556.171      9699.870    1778.196
     1669.321      9779.433    1738.475      1699.337      9781.292    1778.449
     1807.240      9860.013    1740.360      1839.783      9862.636    1776.690
     1943.893      9940.330    1741.067      1977.060      9943.728    1773.717
     2083.189     10020.747    1744.356      2114.800     10024.810    1773.518
     2222.004     10100.943    1747.960      2255.380     10106.276    1778.154
     2360.740     10180.918    1751.955      2398.458     10188.335    1786.902
     2501.158     10261.052    1757.754      2542.690     10270.978    1797.713
     2642.096     10341.224    1763.212      2685.494     10353.650    1802.910
     2781.331     10420.748    1764.394      2826.390     10435.986    1801.689
     2920.263     10499.919    1763.572      2969.666     10519.336    1803.129
     3059.005     10578.761    1761.201      3109.982     10601.661    1801.227
     3198.977     10657.980    1759.289      3247.695     10682.627    1797.556
     3337.086     10736.069    1757.404      3384.710     10762.874    1795.526
     3477.542     10815.342    1758.826      3517.368     10840.023    1792.518
     3617.806     10894.522    1761.936      3652.346     10917.862    1794.050
     3758.225     10973.891    1768.745      3789.733     10996.860    1801.054
     3899.442     11054.037    1778.644      3931.709     11079.121    1815.012
     4040.798     11134.588    1790.751      4076.626     11163.907    1834.684
     4183.131     11216.274    1811.604      4221.264     11248.715    1857.014
     4329.167     11301.542    1833.956      4368.656     11336.035    1880.662
     4467.059     11379.961    1843.645      4513.507     11421.180    1900.825
     4612.302     11465.048    1865.739      4655.912     11504.089    1919.060
     4761.302     11553.639    1894.506      4797.766     11586.462    1936.214
     4903.773     11636.421    1911.328      4938.837     11668.147    1949.295
     5040.173     11713.705    1914.755      5074.060     11744.552    1952.776
     5179.436     11793.566    1916.739      5208.916     11820.586    1955.099
     5321.101     11875.628    1921.821      5346.865     11899.431    1960.630
     5462.809     11957.741    1928.147      5485.940     11979.310    1967.315
     5603.546     12038.955    1927.806      5623.613     12057.867    1967.003
       79.446      8670.514    1723.510        79.670      8670.122    1761.869
      219.511      8751.548    1726.047       220.392      8751.169    1760.108
      359.575      8832.564    1729.602       361.383      8832.163    1760.702
      499.599      8913.577    1732.323       502.808      8913.158    1762.657
      639.135      8994.623    1732.548       644.207      8994.214    1763.832
      778.499      9075.645    1735.407       785.227      9075.312    1766.209
      917.701      9156.649    1739.999       926.071      9156.409    1770.916
     1056.569      9237.632    1743.431      1068.104      9237.488    1778.854
     1195.467      9318.583    1745.136      1211.239      9318.608    1785.439
     1334.382      9399.498    1744.484      1354.309      9399.800    1787.947
     1473.599      9480.381    1742.545      1495.049      9481.001    1782.274
     1612.276      9561.206    1739.337      1636.940      9562.278    1778.165
     1751.266      9641.992    1738.626      1780.805      9643.743    1778.466
     1890.207      9722.714    1740.427      1921.375      9725.118    1776.647
     2027.792      9803.226    1741.242      2058.575      9806.246    1773.675
     2167.499      9883.829    1744.548      2196.658      9887.424    1773.563
     2306.377      9964.212    1748.181      2337.702      9969.029    1778.273
     2445.287     10044.430    1752.268      2481.350     10051.282    1787.127
     2585.775     10124.813    1758.059      2626.799     10134.327    1797.998
     2727.646     10205.503    1763.379      2770.750     10217.522    1802.887
     2868.157     10285.790    1764.536      2912.201     10300.344    1801.718
     3007.636     10365.595    1763.588      3055.122     10383.887    1803.160
     3147.020     10445.175    1761.237      3194.508     10466.147    1801.115
     3287.550     10525.155    1759.270      3332.240     10547.444    1797.571
     3426.208     10604.073    1757.575      3469.601     10628.210    1795.492
     3566.564     10683.824    1759.056      3602.902     10706.134    1792.633
     3705.541     10762.665    1762.292      3737.354     10784.010    1794.346
     3844.650     10841.514    1769.284      3873.584     10862.498    1801.536
     3983.795     10920.385    1779.014      4013.307     10943.242    1815.326
     4122.937     10999.323    1791.130      4155.745     11026.101    1834.685
     4264.969     11080.843    1812.045      4298.846     11109.600    1856.730
     4409.684     11165.009    1834.069      4444.432     11195.286    1879.970
     4547.176     11243.106    1843.710      4588.654     11279.793    1900.249
     4691.962     11327.785    1865.806      4731.041     11362.606    1918.554
     4839.722     11415.231    1894.278      4872.434     11444.494    1935.425
     4981.518     11497.389    1911.160      5014.096     11526.643    1948.906
     5118.742     11575.437    1914.753      5150.986     11604.535    1952.760
     5258.985     11656.195    1916.757      5286.944     11681.579    1955.144
     5401.709     11739.217    1921.904      5425.619     11761.079    1960.668
     5543.598     11821.495    1928.162      5565.225     11841.438    1967.383
     5683.616     11902.050    1927.818      5703.014     11920.123    1967.064
      158.883      8532.926    1721.322       159.138      8532.480    1761.556
      298.896      8613.951    1724.187       299.861      8613.537    1759.420
      438.878      8694.967    1727.421       440.779      8694.556    1758.201
      578.997      8775.952    1732.041       582.260      8775.544    1760.671
      718.078      8857.025    1730.318       723.864      8856.589    1762.978
      857.417      8938.034    1733.974       864.689      8937.701    1764.574
      997.158      9019.014    1740.822      1004.917      9018.812    1767.506
     1135.534      9100.006    1742.878      1149.103      9099.856    1781.249
     1274.495      9180.956    1744.896      1291.407      9180.987    1784.462
     1413.055      9261.870    1743.438      1435.782      9262.188    1788.748
     1552.451      9342.763    1741.462      1576.074      9343.384    1781.749
     1690.153      9423.560    1736.496      1717.400      9424.631    1775.937
     1828.053      9504.287    1733.974      1860.017      9505.997    1774.080
     1969.564      9585.173    1738.215      1998.959      9587.219    1771.215
     2105.310      9665.567    1737.094      2133.584      9668.077    1766.740
     2246.368      9746.312    1742.148      2273.209      9749.323    1768.674
     2383.860      9826.533    1744.403      2415.444      9830.986    1773.870
     2521.990      9906.601    1747.375      2560.238      9913.327    1782.451
     2664.059      9987.254    1753.434      2710.692      9997.353    1795.469
     2806.963     10068.175    1758.115      2851.076     10079.760    1795.733
     2946.970     10148.324    1758.153      2988.966     10161.500    1792.013
     3087.578     10228.541    1757.976      3140.597     10248.083    1800.500
     3225.478     10307.527    1754.843      3275.629     10328.884    1796.451
     3365.922     10387.379    1753.431      3409.346     10408.419    1790.570
     3504.492     10466.173    1751.898      3551.585     10491.801    1793.110
     3646.062     10546.548    1754.765      3681.170     10567.767    1787.172
     3782.433     10623.639    1756.119      3815.151     10645.364    1788.980
     3921.116     10702.016    1763.080      3950.305     10723.057    1795.762
     4062.708     10782.616    1776.983      4092.276     10805.450    1813.831
     4197.366     10857.882    1785.473      4233.035     10886.967    1833.171
     4341.547     10941.082    1809.498      4376.353     10970.604    1856.716
     4492.688     11030.798    1841.728      4526.703     11060.378    1887.990
     4622.001     11101.765    1841.495      4665.427     11140.010    1901.455
     4769.236     11188.597    1867.265      4808.535     11223.357    1920.296
     4923.562     11281.799    1903.356      4954.072     11308.800    1941.032
     5065.354     11363.935    1918.942      5097.784     11392.655    1955.202
     5195.767     11435.993    1915.114      5228.780     11465.289    1952.389
     5334.099     11515.052    1914.496      5364.935     11542.513    1954.518
     5478.256     11599.297    1920.635      5503.130     11621.564    1958.635
     5620.448     11681.807    1927.165      5643.714     11702.773    1965.983
     5760.586     11762.458    1926.838      5781.680     11781.639    1965.646
      238.329      8395.321    1720.410       238.637      8394.784    1764.833
      378.249      8476.371    1721.404       379.469      8475.841    1762.967
      517.991      8557.411    1722.900       520.249      8556.926    1756.933
      658.098      8638.365    1729.760       662.197      8637.864    1763.048
      797.730      8719.379    1732.514       803.458      8718.963    1762.215
      936.566      8800.415    1734.067       943.035      8800.134    1758.935
     1075.815      8881.404    1739.222      1085.798      8881.159    1770.302
     1214.281      8962.388    1741.894      1229.274      8962.229    1779.886
     1353.147      9043.337    1743.938      1373.711      9043.360    1786.776
     1493.503      9124.276    1746.023      1517.818      9124.567    1789.146
     1632.098      9205.174    1742.398      1658.897      9205.788    1783.255
     1770.606      9286.026    1738.053      1801.389      9287.084    1778.149
     1907.745      9366.761    1733.965      1938.203      9368.190    1769.003
     2046.098      9447.467    1734.153      2074.373      9449.201    1764.202
     2183.013      9527.966    1734.643      2210.887      9530.160    1762.945
     2325.095      9608.797    1741.060      2355.563      9611.851    1769.893
     2462.038      9689.000    1742.410      2502.370      9694.130    1777.429
     2600.012      9769.076    1744.448      2648.705      9776.885    1784.967
     2742.284      9849.730    1748.981      2791.672      9859.587    1788.865
     2878.642      9928.990    1746.764      2921.187      9939.396    1779.704
     3022.019     10009.780    1748.656      3064.197     10022.226    1780.226
     3167.633     10091.516    1752.260      3223.160     10110.967    1793.845
     3303.712     10169.821    1748.665      3360.029     10192.866    1792.802
     3446.781     10250.784    1750.633      3495.041     10273.508    1790.144
     3586.259     10330.103    1750.912      3628.448     10352.653    1786.600
     3724.981     10408.841    1752.214      3768.131     10434.686    1790.644
     3861.438     10485.904    1754.411      3898.472     10510.442    1790.445
     4000.433     10564.420    1762.306      4037.673     10591.359    1803.121
     4140.842     10644.055    1775.869      4172.932     10669.046    1815.281
     4284.568     10726.701    1798.000      4322.851     10758.229    1848.547
     4429.755     10811.115    1824.648      4465.921     10842.022    1873.849
     4570.216     10891.790    1844.330      4606.805     10923.732    1894.193
     4706.885     10969.248    1855.906      4744.279     11002.185    1906.745
     4862.982     11063.920    1893.452      4894.969     11092.108    1935.096
     5011.481     11151.897    1919.107      5038.593     11175.717    1950.497
     5141.478     11223.643    1919.563      5177.423     11255.132    1957.109
     5273.512     11297.231    1917.833      5316.242     11334.605    1962.627
     5414.906     11379.014    1921.324      5453.128     11412.457    1966.544
     5557.771     11462.084    1926.081      5588.768     11489.268    1968.546
     5699.178     11543.877    1931.024      5727.852     11569.134    1973.207
     5839.547     11624.744    1930.776      5865.577     11647.835    1973.060
      317.805      8257.665    1723.258       318.161      8257.042    1769.352
      457.699      8338.743    1722.111       459.149      8338.113    1767.174
      597.452      8419.779    1724.046       600.068      8419.222    1760.220
      736.851      8500.818    1725.342       741.142      8500.304    1757.557
      876.490      8581.798    1730.265       882.560      8581.369    1759.477
     1015.889      8662.792    1734.922      1022.758      8662.502    1759.257
     1154.337      8743.802    1737.618      1165.778      8743.526    1769.743
     1293.814      8824.768    1742.899      1308.910      8824.602    1776.854
     1432.460      8905.729    1744.373      1452.839      8905.719    1781.664
     1570.293      8986.653    1742.311      1596.062      8986.888    1782.244
     1709.312      9067.552    1739.984      1739.930      9068.121    1780.871
     1848.987      9148.435    1737.254      1882.353      9149.391    1775.791
     1991.003      9229.385    1738.296      2020.918      9230.573    1769.401
     2126.048      9309.999    1734.810      2160.287      9311.795    1768.348
     2265.365      9390.728    1737.577      2301.284      9393.168    1771.471
     2402.579      9471.200    1739.146      2440.757      9474.536    1772.169
     2542.630      9551.789    1742.147      2587.142      9556.781    1776.776
     2682.833      9632.306    1744.654      2738.612      9640.293    1785.497
     2823.130      9712.742    1746.103      2882.763      9723.509    1788.174
     2954.875      9791.153    1739.651      3014.096      9804.425    1780.209
     3094.821      9870.818    1737.993      3145.391      9884.666    1772.179
     3235.134      9950.343    1737.718      3297.984      9971.050    1780.456
     3379.243     10031.115    1740.525      3441.044     10055.263    1784.776
     3525.994     10113.391    1746.253      3585.900     10140.751    1791.886
     3667.240     10193.541    1749.393      3712.982     10217.610    1785.948
     3809.018     10274.109    1754.678      3856.567     10302.510    1794.781
     3947.525     10352.739    1760.182      3994.629     10384.181    1803.859
     4088.322     10432.896    1771.502      4132.192     10465.150    1817.660
     4224.550     10509.604    1782.296      4266.337     10542.966    1831.527
     4374.775     10598.036    1814.301      4420.520     10636.789    1871.584
     4517.848     10681.143    1839.799      4557.438     10715.702    1892.487
     4647.781     10752.727    1847.695      4688.454     10788.723    1902.257
     4792.708     10837.552    1873.154      4829.473     10870.128    1921.088
     4952.104     10935.156    1913.782      4977.054     10957.147    1944.031
     5089.756     11013.516    1924.182      5120.120     11040.092    1956.571
     5214.213     11080.463    1918.399      5255.772     11116.595    1958.462
     5348.097     11155.749    1918.194      5401.008     11201.499    1969.152
     5497.194     11244.189    1929.379      5541.866     11282.677    1977.094
     5637.125     11324.712    1930.941      5678.142     11360.005    1980.526
     5778.757     11406.694    1935.456      5815.362     11438.235    1982.348
     5919.307     11487.733    1935.224      5952.378     11516.360    1982.325
      397.257      8120.050    1722.586       397.648      8119.367    1767.840
      537.136      8201.119    1722.307       538.425      8200.565    1758.168
      676.865      8282.154    1724.311       679.285      8281.647    1754.656
      816.555      8363.155    1728.086       820.449      8362.699    1755.166
      955.433      8444.204    1729.024       961.331      8443.796    1755.798
     1094.182      8525.214    1732.179      1102.846      8524.855    1761.113
     1232.548      8606.212    1735.447      1244.559      8605.921    1766.527
     1372.631      8687.164    1742.164      1390.077      8686.952    1777.450
     1511.810      8768.129    1744.560      1535.677      8768.065    1783.199
     1649.641      8849.073    1742.673      1679.482      8849.240    1783.172
     1785.339      8929.943    1736.518      1817.784      8930.390    1774.483
     1928.988      9010.902    1738.452      1965.384      9011.719    1775.730
     2071.766      9091.881    1739.931      2101.620      9092.839    1767.672
     2209.842      9172.698    1739.213      2240.039      9174.003    1765.712
     2349.284      9253.522    1741.120      2385.693      9255.590    1771.461
     2485.602      9334.076    1740.463      2530.968      9337.423    1774.646
     2620.125      9414.262    1737.828      2673.389      9419.370    1773.944
     2766.375      9495.528    1742.947      2827.366      9503.106    1781.421
     2897.598      9574.714    1737.943      2960.372      9584.693    1775.794
     3028.504      9652.982    1731.182      3093.063      9665.955    1769.405
     3169.762      9732.733    1729.669      3230.378      9747.887    1765.733
     3307.827      9811.326    1727.770      3383.665      9834.539    1773.744
     3454.680      9892.561    1732.351      3514.796      9914.793    1771.106
     3598.865      9973.219    1736.669      3659.814     10000.098    1779.149
     3746.189     10055.884    1745.239      3795.846     10081.625    1782.130
     3886.960     10135.668    1751.011      3947.248     10171.795    1798.891
     4028.887     10216.347    1760.441      4085.155     10254.616    1809.878
     4167.704     10295.008    1770.422      4217.279     10332.683    1820.183
     4305.211     10372.526    1783.432      4359.344     10417.686    1844.950
     4446.128     10453.161    1805.723      4514.732     10514.192    1886.722
     4600.438     10546.651    1845.172      4642.145     10584.677    1899.308
     4731.746     10619.295    1857.481      4766.698     10651.236    1903.339
     4884.562     10711.403    1895.554      4916.709     10740.371    1935.281
     5034.407     10800.491    1923.540      5063.123     10825.950    1955.557
     5161.419     10869.402    1922.359      5198.724     10902.040    1958.947
     5290.084     10940.062    1920.735      5332.250     10976.542    1958.329
     5423.435     11014.963    1919.385      5467.185     11052.460    1958.390
     5569.559     11100.839    1926.243      5613.610     11138.301    1969.374
     5711.986     11183.522    1929.575      5756.280     11220.984    1977.802
     5855.846     11267.387    1935.601      5896.915     11302.043    1982.382
     5996.792     11348.771    1935.297      6033.646     11379.915    1982.243
      476.675      7982.495    1717.832       477.078      7981.790    1760.047
      616.510      8063.518    1720.622       617.977      8062.901    1756.675
      755.990      8144.586    1721.034       758.749      8144.023    1752.123
      896.287      8225.492    1730.312       900.979      8224.955    1760.589
     1035.176      8306.556    1731.033      1042.085      8306.087    1761.048
     1173.258      8387.607    1731.878      1183.566      8387.183    1765.106
     1310.925      8468.624    1733.668      1324.683      8468.281    1767.371
     1450.950      8549.576    1740.360      1469.234      8549.323    1774.437
     1589.376      8630.549    1741.730      1613.228      8630.417    1776.724
     1724.911      8711.499    1737.516      1756.676      8711.545    1776.322
     1863.870      8792.406    1735.939      1894.843      8792.663    1768.676
     2003.519      8873.291    1734.039      2040.436      8873.869    1768.352
     2143.820      8954.159    1733.802      2181.254      8955.057    1765.080
     2289.442      9035.183    1739.088      2332.489      9036.634    1772.368
     2429.641      9116.065    1739.974      2472.711      9118.016    1770.762
     2575.116      9197.252    1743.008      2627.418      9200.377    1776.749
     2700.945      9277.077    1733.040      2757.552      9281.554    1766.319
     2834.595      9357.005    1729.682      2908.078      9364.695    1769.292
     2969.138      9436.549    1727.427      3055.044      9448.224    1770.924
     3102.209      9515.162    1722.699      3186.103      9529.905    1765.322
     3250.136      9596.135    1724.661      3330.552      9614.159    1766.218
     3390.689      9675.551    1723.825      3465.211      9696.443    1763.949
     3525.653      9752.700    1721.478      3588.497      9774.452    1757.998
     3671.852      9833.380    1727.052      3721.359      9854.294    1758.622
     3819.772      9915.525    1736.218      3869.422      9940.809    1770.474
     3964.659      9997.032    1745.759      4025.112     10033.517    1791.046
     4103.340     10075.049    1752.874      4172.946     10123.851    1810.949
     4245.783     10155.818    1765.506      4309.375     10206.761    1826.742
     4390.927     10239.732    1786.187      4445.352     10288.310    1847.266
     4520.140     10309.759    1794.985      4602.679     10388.559    1892.841
     4688.672     10418.153    1853.108      4730.489     10459.024    1906.349
     4830.491     10500.440    1881.317      4866.577     10535.247    1927.612
     4980.759     10589.988    1916.958      5014.839     10621.664    1957.140
     5111.559     10661.394    1924.206      5151.910     10697.635    1966.130
     5232.954     10725.190    1919.510      5278.967     10765.547    1961.502
     5361.406     10795.760    1918.299      5403.571     10832.118    1953.510
     5504.514     10879.100    1924.574      5552.699     10920.096    1965.067
     5647.855     10962.597    1928.211      5695.531     11002.683    1972.193
     5786.425     11042.081    1927.008      5831.271     11079.420    1972.660
     5932.525     11127.801    1934.431      5974.201     11162.278    1978.165
     6073.948     11209.599    1934.073      6111.253     11240.393    1978.005
      556.113      7844.904    1714.808       556.471      7844.278    1748.688
      695.906      7925.904    1719.146       697.513      7925.250    1753.882
      835.434      8006.950    1721.238       838.772      8006.290    1754.936
      975.662      8087.870    1729.592       982.024      8087.161    1767.783
     1114.901      8168.912    1732.276      1123.610      8168.330    1768.747
     1253.737      8249.946    1735.416      1265.915      8249.441    1773.740
     1392.991      8330.949    1740.121      1407.482      8330.570    1774.264
     1531.016      8411.972    1741.301      1551.620      8411.637    1777.479
     1667.523      8492.988    1739.567      1694.525      8492.739    1776.570
     1803.004      8573.971    1735.725      1831.914      8573.865    1768.792
     1941.312      8654.901    1733.675      1970.500      8654.953    1762.813
     2078.000      8735.774    1729.414      2110.750      8736.033    1758.094
     2219.378      8816.639    1730.595      2263.233      8817.300    1764.269
     2363.815      8897.562    1734.144      2409.063      8898.626    1765.211
     2514.702      8978.759    1739.661      2565.118      8980.444    1770.868
     2658.809      9059.890    1737.946      2710.372      9062.239    1766.920
     2784.026      9140.005    1725.936      2848.396      9143.976    1759.455
     2914.745      9219.953    1720.654      2998.908      9227.073    1760.112
     3049.115      9299.694    1719.197      3134.929      9309.443    1756.475
     3188.143      9379.473    1718.099      3278.230      9393.048    1758.934
     3325.359      9458.505    1715.927      3411.775      9475.543    1755.661
     3460.801      9536.437    1713.019      3548.366      9558.542    1755.257
     3600.897      9614.764    1713.312      3672.449      9637.573    1751.337
     3745.922      9694.409    1718.199      3810.924      9720.329    1756.653
     3889.794      9773.665    1724.633      3958.979      9807.916    1769.460
     4033.167      9852.843    1732.591      4104.332      9895.984    1783.269
     4168.574      9926.649    1735.792      4245.748      9982.856    1797.742
     4314.921     10008.461    1748.927      4385.265     10068.928    1815.469
     4457.893     10089.086    1763.511      4516.389     10146.414    1830.002
     4592.039     10162.186    1775.475      4688.328     10264.816    1895.670
     4717.104     10226.904    1780.271      4824.695     10343.739    1917.350
     4933.183     10388.747    1904.793      4968.681     10425.749    1950.215
     5070.732     10464.162    1925.605      5101.655     10494.251    1961.467
     5190.351     10523.875    1922.915      5235.586     10565.361    1968.062
     5311.732     10587.319    1920.671      5364.663     10633.966    1966.701
     5443.345     10660.648    1922.723      5492.530     10702.878    1961.908
     5579.525     10738.116    1922.992      5620.426     10772.606    1956.020
     5720.746     10819.898    1924.026      5766.223     10857.654    1964.533
     5867.829     10906.477    1930.287      5912.305     10942.902    1974.038
     6013.738     10991.974    1936.954      6054.067     11024.666    1977.235
     6155.273     11073.867    1936.623      6191.320     11102.917    1977.145
      635.657      7707.128    1720.418       635.997      7706.535    1749.830
      775.306      7788.285    1717.512       776.812      7787.697    1746.298
      914.858      7869.318    1720.837       918.830      7868.562    1756.946
     1054.202      7950.340    1723.777      1061.450      7949.556    1764.331
     1193.453      8031.347    1728.016      1202.872      8030.726    1765.928
     1332.387      8112.366    1732.342      1345.326      8111.818    1771.819
     1472.661      8193.341    1739.677      1490.971      8192.821    1781.028
     1610.328      8274.391    1740.071      1633.792      8273.926    1779.342
     1744.889      8355.468    1735.898      1773.522      8355.059    1773.380
     1879.267      8436.507    1731.405      1906.418      8436.229    1761.385
     2019.621      8517.454    1731.839      2048.222      8517.275    1759.669
     2160.202      8598.374    1730.830      2190.277      8598.333    1756.330
     2300.742      8679.260    1730.837      2346.993      8679.484    1764.221
     2446.966      8760.185    1733.757      2500.429      8760.852    1767.283
     2596.519      8841.264    1734.763      2646.455      8842.331    1762.579
     2736.346      8922.229    1726.974      2804.662      8924.382    1761.632
     2876.438      9003.234    1719.803      2950.026      9006.436    1754.658
     3006.323      9083.661    1712.855      3094.494      9089.032    1750.779
     3134.772      9163.308    1708.649      3232.998      9172.254    1751.485
     3274.835      9243.510    1710.351      3369.333      9255.538    1751.435
     3404.500      9321.760    1707.204      3500.358      9338.117    1748.448
     3536.752      9399.212    1704.683      3630.508      9420.156    1746.574
     3677.038      9477.474    1705.664      3759.936      9501.357    1747.006
     3815.913      9554.508    1707.708      3885.396      9580.062    1746.438
     3958.226      9631.708    1712.652      4051.569      9675.768    1770.155
     4108.018      9712.635    1723.446      4195.406      9765.362    1783.613
     4249.765      9789.483    1729.796      4323.246      9845.003    1787.960
     4392.793      9867.559    1737.740      4460.451      9930.276    1802.538
     4534.152      9945.097    1746.846      4584.885     10001.035    1807.467
     4668.547     10014.599    1753.347      4710.312     10068.679    1812.627
     4793.394     10077.727    1760.194      4906.165     10224.495    1913.598
     5013.294     10257.307    1896.419      5048.099     10297.614    1942.298
     5147.592     10326.255    1915.123      5186.414     10365.981    1960.623
     5272.804     10389.781    1921.083      5321.694     10435.581    1969.224
     5397.356     10455.497    1923.762      5452.652     10504.366    1970.517
     5521.642     10522.449    1921.108      5573.497     10566.603    1961.070
     5656.053     10598.542    1920.632      5699.160     10634.403    1954.523
     5806.928     10688.265    1930.264      5850.411     10723.763    1968.078
     5953.917     10774.600    1937.061      5992.636     10805.692    1974.222
     6098.540     10858.932    1941.860      6135.287     10888.051    1977.398