NOECHO

-- =============================================================================
-- 
-- Exported from Reek_base_sim
-- 
-- Exported by user akia from RMS11 at 2019-11-29 13:59:19
-- 
-- =============================================================================

MAPUNITS
'METRES  ' /

MAPAXES
456514.908 5939176.697
456514.908 5927115.548
467219.092 5927115.548 /

GRIDUNIT
'METRES  ' '        ' /

SPECGRID
  40  64  14   1  F  /

GDORIENT
INC INC INC DOWN RIGHT /

COORD
        0.000      8808.085    1732.225         0.123      8807.808    1783.359
      140.012      8889.115    1734.489       140.836      8888.858    1786.318
      279.913      8970.142    1738.263       281.676      8969.901    1788.820
      419.687      9051.147    1741.527       422.650      9050.963    1787.938
      559.328      9132.134    1744.471       563.978      9132.039    1789.113
      698.837      9213.104    1747.151       705.208      9213.144    1788.231
      838.289      9294.060    1749.859       846.367      9294.262    1788.011
      977.482      9374.991    1751.534       988.109      9375.415    1791.728
     1116.160      9455.875    1750.995      1130.593      9456.642    1796.560
     1254.720      9536.714    1748.490      1271.917      9537.851    1792.047
     1392.667      9617.462    1743.449      1411.515      9618.959    1783.359
     1530.394      9698.121    1740.663      1553.253      9700.263    1781.663
     1667.740      9778.654    1740.195      1696.759      9781.824    1784.375
     1805.459      9859.119    1741.203      1840.687      9863.580    1788.298
     1944.838      9939.696    1744.501      1982.542      9945.224    1789.605
     2081.958     10019.794    1744.326      2119.777     10026.228    1785.644
     2218.370     10099.510    1742.770      2256.134     10106.982    1781.937
     2356.442     10179.259    1743.287      2395.113     10188.162    1782.291
     2496.552     10259.256    1746.979      2536.989     10270.076    1786.698
     2637.844     10339.433    1752.986      2681.883     10353.106    1795.281
     2777.233     10418.818    1756.636      2829.485     10437.598    1807.240
     2918.158     10498.548    1760.156      2972.551     10521.045    1813.892
     3060.786     10578.995    1763.141      3112.741     10603.484    1815.483
     3202.179     10658.962    1763.009      3249.407     10684.028    1810.429
     3341.384     10737.721    1759.832      3385.513     10763.771    1804.085
     3480.501     10816.278    1757.626      3524.144     10844.636    1801.685
     3620.143     10895.082    1758.771      3662.713     10925.242    1802.733
     3762.339     10975.836    1765.801      3801.377     11005.690    1808.342
     3904.158     11056.619    1774.523      3937.895     11084.155    1814.740
     4043.993     11136.016    1784.816      4077.257     11164.634    1827.266
     4188.393     11219.685    1809.428      4222.370     11250.094    1850.778
     4335.065     11305.884    1836.164      4370.419     11338.375    1877.261
     4470.360     11381.836    1845.076      4511.458     11420.197    1894.812
     4611.834     11463.630    1861.809      4655.530     11504.736    1916.952
     4758.084     11550.018    1887.605      4801.124     11590.694    1938.811
     4901.789     11634.061    1906.088      4942.930     11673.112    1951.257
     5040.614     11713.486    1913.233      5080.080     11751.149    1955.879
     5180.105     11793.537    1916.351      5215.736     11827.755    1958.347
     5321.371     11875.295    1920.392      5352.832     11905.725    1962.365
     5462.157     11956.593    1925.038      5489.201     11982.964    1965.067
     5602.637     12037.587    1924.788      5626.572     12061.148    1964.950
       79.448      8670.450    1732.271        79.604      8670.174    1783.423
      219.480      8751.479    1734.548       220.352      8751.227    1786.375
      359.431      8832.501    1738.308       361.248      8832.272    1788.845
      499.293      8913.506    1741.574       502.290      8913.340    1788.010
      639.092      8994.496    1744.535       643.714      8994.423    1789.139
      778.827      9075.474    1747.229       785.047      9075.536    1788.263
      918.523      9156.447    1749.919       926.305      9156.660    1788.057
     1057.899      9237.399    1751.579      1068.109      9237.821    1791.772
     1196.678      9318.302    1751.029      1210.711      9319.057    1796.554
     1335.237      9399.159    1748.527      1351.928      9400.261    1792.033
     1473.134      9479.922    1743.530      1491.766      9481.388    1783.357
     1611.010      9560.620    1740.741      1633.713      9562.713    1781.683
     1748.886      9641.244    1740.272      1777.422      9644.296    1784.397
     1887.325      9721.845    1741.329      1921.458      9726.062    1788.310
     2027.219      9802.563    1744.569      2063.461      9807.732    1789.586
     2164.835      9882.844    1744.411      2201.166      9888.849    1785.571
     2301.845      9962.814    1742.921      2338.033      9969.762    1781.932
     2440.670     10042.905    1743.551      2477.472     10051.125    1782.384
     2581.586     10123.323    1747.336      2620.372     10133.392    1786.884
     2723.044     10203.810    1753.299      2766.118     10216.796    1795.597
     2862.527     10283.541    1756.941      2913.975     10301.533    1807.555
     3003.640     10363.671    1760.477      3056.817     10385.130    1814.025
     3146.457     10444.533    1763.321      3196.832     10467.774    1815.480
     3288.248     10525.056    1763.034      3333.037     10548.406    1810.287
     3428.132     10604.602    1759.825      3469.498     10628.669    1804.133
     3567.859     10683.974    1757.666      3608.567     10710.125    1801.829
     3707.191     10763.011    1759.100      3747.193     10791.107    1803.066
     3848.351     10843.382    1766.306      3884.818     10871.095    1808.720
     3988.609     10923.220    1774.833      4019.773     10948.541    1815.034
     4127.226     11001.791    1785.359      4157.521     11027.774    1827.541
     4270.903     11084.937    1810.143      4300.508     11111.370    1850.589
     4415.011     11168.852    1836.204      4445.456     11196.759    1876.383
     4549.522     11244.100    1845.054      4585.557     11277.621    1894.125
     4690.530     11325.463    1861.649      4728.653     11361.160    1915.753
     4835.832     11410.939    1887.272      4873.425     11446.240    1937.675
     4979.006     11494.458    1905.859      5016.784     11530.039    1950.787
     5118.764     11574.771    1913.191      5156.206     11610.186    1955.866
     5259.799     11656.295    1916.367      5293.708     11688.541    1958.417
     5402.430     11739.355    1920.472      5431.990     11767.646    1962.444
     5543.517     11820.955    1925.055      5569.119     11845.641    1965.174
     5683.293     11901.285    1924.799      5706.575     11923.935    1965.050
      158.893      8532.846    1729.634       159.071      8532.534    1779.182
      298.851      8613.875    1730.685       299.848      8613.597    1782.141
      438.758      8694.881    1734.887       440.880      8694.640    1786.512
      578.602      8775.874    1738.482       581.741      8775.732    1781.722
      718.326      8856.856    1740.768       723.422      8856.818    1785.267
      857.850      8937.828    1742.139       864.796      8937.937    1784.486
      997.796      9018.802    1746.281      1006.094      9019.062    1784.555
     1137.314      9099.758    1748.587      1148.634      9100.254    1790.501
     1276.125      9180.666    1748.586      1292.174      9181.545    1796.764
     1414.382      9261.511    1746.482      1431.628      9262.640    1788.002
     1551.481      9342.223    1741.449      1571.488      9343.757    1780.328
     1689.454      9422.937    1739.602      1714.371      9425.148    1780.450
     1826.959      9503.537    1738.353      1856.133      9506.514    1780.234
     1964.920      9584.098    1738.376      2002.112      9588.449    1786.642
     2106.242      9665.004    1742.854      2145.366      9670.266    1789.098
     2242.733      9745.162    1741.230      2281.188      9751.132    1782.890
     2378.583      9824.965    1738.490      2417.259      9831.928    1778.383
     2516.829      9904.935    1738.436      2555.936      9913.113    1777.975
     2656.582      9985.012    1740.578      2698.867      9995.292    1781.160
     2800.573     10066.078    1747.800      2843.472     10078.215    1787.448
     2939.254     10145.520    1749.980      2995.936     10164.204    1802.617
     3081.454     10225.931    1753.898      3139.190     10248.039    1809.101
     3225.943     10307.383    1757.810      3280.783     10331.585    1812.130
     3367.622     10387.798    1757.299      3413.203     10410.733    1804.179
     3506.529     10466.749    1753.355      3548.652     10490.610    1797.979
     3645.442     10545.499    1750.733      3686.898     10571.627    1795.353
     3782.975     10623.138    1750.979      3823.120     10650.971    1794.584
     3925.383     10704.188    1760.414      3962.297     10732.015    1803.251
     4067.772     10785.606    1773.136      4096.092     10808.518    1809.885
     4200.969     10859.528    1778.036      4233.309     10887.218    1823.465
     4347.849     10945.335    1808.079      4375.767     10970.244    1847.509
     4498.101     11034.829    1844.345      4525.710     11060.093    1882.540
     4626.883     11104.848    1846.546      4661.549     11136.966    1895.404
     4766.423     11184.864    1861.635      4803.871     11219.677    1915.680
     4916.531     11274.790    1893.872      4952.084     11307.814    1941.793
     5060.016     11358.572    1911.531      5095.328     11391.360    1952.820
     5195.430     11434.866    1913.053      5231.024     11467.957    1952.366
     5334.834     11514.862    1913.353      5369.835     11547.494    1954.911
     5478.943     11599.252    1918.088      5509.429     11627.800    1959.091
     5620.337     11681.117    1922.740      5646.737     11705.980    1961.067
     5760.206     11761.540    1922.510      5784.394     11784.490    1960.952
      238.353      8395.217    1730.744       238.548      8394.876    1777.449
      378.318      8476.245    1731.206       379.449      8475.934    1782.494
      518.108      8557.261    1731.975       520.479      8557.008    1782.311
      657.595      8638.257    1731.508       661.457      8638.107    1778.011
      797.442      8719.219    1736.078       802.321      8719.210    1773.926
      936.614      8800.176    1735.820       944.493      8800.331    1779.463
     1076.098      8881.125    1738.440      1087.146      8881.502    1785.308
     1215.060      8962.046    1739.803      1228.310      8962.644    1784.814
     1354.657      9042.984    1743.690      1370.218      9043.836    1786.083
     1495.996      9124.024    1749.951      1513.115      9125.123    1786.953
     1634.594      9204.886    1748.218      1657.278      9206.563    1787.586
     1773.090      9285.704    1746.831      1801.440      9288.104    1788.519
     1908.134      9366.145    1741.610      1938.016      9369.031    1780.924
     2042.583      9446.377    1736.710      2079.389      9450.431    1781.158
     2180.551      9526.848    1736.865      2223.482      9532.262    1784.476
     2320.669      9607.501    1739.113      2365.595      9614.021    1784.771
     2458.237      9687.658    1737.940      2506.467      9695.752    1784.034
     2595.769      9767.589    1737.066      2644.535      9777.074    1782.003
     2736.646      9847.988    1739.420      2785.738      9859.083    1781.824
     2875.655      9927.759    1740.588      2932.358      9942.712    1788.191
     3016.358     10007.707    1743.355      3081.242     10027.761    1798.921
     3159.262     10088.230    1746.965      3225.929     10112.380    1806.380
     3301.679     10168.611    1748.257      3362.178     10194.153    1804.413
     3446.119     10250.064    1750.486      3499.667     10276.152    1802.585
     3587.832     10330.453    1750.556      3636.695     10357.578    1800.196
     3722.483     10406.600    1745.223      3768.066     10435.036    1792.184
     3862.726     10485.874    1749.280      3905.702     10515.597    1794.228
     4005.390     10567.075    1760.281      4045.955     10597.760    1806.433
     4147.382     10648.170    1774.736      4177.939     10673.122    1813.669
     4289.646     10729.895    1794.449      4321.186     10757.204    1837.944
     4436.791     10816.389    1826.328      4464.420     10841.254    1865.345
     4574.610     10894.751    1846.429      4599.279     10917.436    1881.043
     4708.473     10969.466    1856.729      4736.959     10995.876    1896.881
     4856.144     11057.063    1883.857      4887.408     11086.024    1927.641
     5003.828     11144.681    1910.450      5039.731     11177.792    1955.706
     5136.016     11218.035    1912.374      5173.261     11252.240    1953.377
     5271.373     11294.355    1913.196      5306.835     11326.841    1950.281
     5411.976     11375.486    1914.331      5443.272     11404.144    1949.355
     5555.399     11459.200    1917.656      5580.321     11482.053    1948.836
     5698.054     11542.210    1923.322      5721.481     11563.767    1954.467
     5838.168     11622.876    1923.056      5859.491     11642.606    1954.160
      317.816      8257.583    1731.066       318.018      8257.229    1774.360
      457.780      8338.615    1730.468       458.956      8338.300    1777.304
      597.513      8419.634    1729.941       600.004      8419.384    1775.688
      736.958      8500.623    1729.368       740.699      8500.499    1768.107
      876.333      8581.582    1730.259       882.197      8581.595    1770.050
     1016.275      8662.542    1734.817      1026.060      8662.762    1783.493
     1154.777      8743.460    1733.212      1166.345      8743.874    1777.507
     1292.799      8824.334    1732.615      1307.411      8824.999    1777.344
     1432.372      8905.262    1737.857      1446.600      8906.029    1772.777
     1571.572      8986.159    1741.147      1588.483      8987.208    1773.965
     1711.404      9067.082    1743.923      1733.702      9068.658    1778.630
     1852.488      9148.095    1747.296      1877.237      9150.078    1780.084
     1990.639      9228.854    1746.347      2017.284      9231.272    1778.336
     2127.633      9309.441    1743.919      2162.353      9313.014    1782.600
     2259.015      9389.265    1736.280      2302.745      9394.396    1781.294
     2395.165      9469.401    1734.202      2445.664      9476.202    1781.505
     2534.934      9549.876    1734.796      2593.286      9558.936    1784.793
     2677.487      9630.749    1737.522      2745.039      9642.864    1791.499
     2813.574      9710.281    1735.092      2878.791      9723.855    1783.914
     2947.398      9788.792    1731.199      3010.428      9804.146    1777.729
     3091.433      9869.398    1734.995      3163.468      9890.119    1790.496
     3232.077      9948.875    1735.655      3301.065      9972.404    1791.793
     3374.296     10028.694    1735.939      3440.587     10055.421    1792.338
     3519.100     10109.706    1738.283      3581.518     10139.205    1794.147
     3663.191     10190.798    1741.540      3720.980     10222.415    1795.850
     3802.913     10269.681    1743.175      3849.695     10298.846    1787.905
     3947.271     10351.754    1752.830      3984.784     10377.970    1789.867
     4086.192     10430.328    1762.031      4122.911     10458.675    1802.355
     4226.750     10510.232    1777.446      4257.310     10535.940    1814.751
     4380.547     10602.332    1814.540      4414.130     10632.378    1858.125
     4524.281     10686.312    1843.509      4552.607     10712.433    1882.533
     4651.242     10754.679    1850.129      4683.960     10785.237    1895.571
     4791.523     10835.407    1871.449      4819.373     10861.397    1909.309
     4947.643     10930.870    1909.075      4978.727     10959.675    1949.215
     5085.198     11009.059    1919.199      5121.187     11042.120    1960.345
     5209.980     11075.680    1912.135      5250.319     11112.438    1953.166
     5348.198     11154.686    1914.970      5389.276     11191.874    1955.545
     5495.381     11241.792    1922.454      5522.733     11266.443    1951.648
     5635.779     11322.761    1922.394      5657.287     11342.102    1947.908
     5777.395     11404.820    1926.110      5797.586     11422.981    1951.194
     5917.823     11485.797    1925.924      5936.146     11502.332    1951.007
      397.259      8119.983    1726.337       397.473      8119.609    1768.030
      537.218      8200.990    1728.033       538.313      8200.707    1766.116
      676.885      8282.009    1726.917       679.052      8281.805    1760.938
      816.323      8362.990    1726.981       820.197      8362.880    1761.006
      955.150      8443.941    1724.930       961.612      8443.976    1762.849
     1093.929      8524.863    1725.026      1103.755      8525.103    1768.637
     1231.781      8605.738    1723.554      1244.750      8606.211    1767.862
     1369.581      8686.585    1724.688      1383.676      8687.222    1763.479
     1508.644      8767.474    1730.485      1525.436      8768.354    1768.016
     1646.730      8848.291    1733.737      1665.999      8849.437    1768.082
     1785.720      8929.133    1737.180      1807.273      8930.575    1767.969
     1928.538      9010.236    1743.849      1953.418      9012.105    1774.002
     2069.685      9091.235    1746.603      2104.958      9094.214    1785.263
     2207.792      9171.954    1744.976      2245.329      9175.532    1783.207
     2337.805      9251.732    1735.784      2385.098      9256.854    1780.402
     2470.411      9331.499    1729.963      2526.409      9338.431    1777.606
     2607.723      9411.610    1728.026      2670.034      9420.468    1775.153
     2753.822      9492.955    1732.394      2830.051      9505.420    1784.201
     2891.240      9572.810    1730.458      2962.306      9586.264    1775.316
     3020.988      9650.549    1723.509      3096.452      9667.357    1771.287
     3163.013      9730.339    1724.311      3243.810      9751.803    1778.990
     3306.892      9810.433    1726.353      3382.805      9834.662    1781.433
     3448.249      9889.542    1725.040      3520.917      9917.407    1780.655
     3591.057      9969.049    1725.647      3657.949      9999.675    1779.692
     3738.396     10051.064    1732.263      3795.064     10081.721    1780.094
     3882.779     10132.280    1739.366      3930.645     10162.386    1780.797
     4027.992     10214.819    1751.407      4070.705     10245.476    1790.555
     4167.287     10293.540    1763.284      4203.800     10322.960    1801.607
     4309.816     10375.167    1783.519      4351.874     10412.477    1833.021
     4450.168     10455.459    1806.466      4505.477     10507.838    1874.086
     4599.630     10545.142    1842.521      4634.145     10578.585    1888.736
     4730.342     10616.732    1855.786      4765.677     10650.926    1903.658
     4880.942     10707.424    1892.737      4912.450     10737.365    1933.234
     5029.877     10796.167    1919.518      5064.855     10828.774    1960.409
     5154.735     10862.583    1914.504      5194.602     10899.182    1955.760
     5284.207     10933.600    1912.518      5328.098     10973.388    1953.967
     5426.821     11016.637    1918.449      5467.388     11053.024    1956.914
     5571.696     11101.659    1922.656      5602.208     11128.789    1954.593
     5710.280     11181.067    1919.650      5734.820     11202.747    1948.258
     5854.696     11265.613    1925.880      5876.623     11284.916    1952.182
     5995.505     11346.953    1925.561      6015.430     11364.496    1951.962
      476.690      7982.405    1719.217       476.917      7982.009    1759.122
      616.491      8063.404    1720.072       617.815      8063.077    1759.735
      756.150      8144.391    1722.203       758.576      8144.180    1754.414
      895.460      8225.362    1722.691       899.609      8225.261    1753.408
     1034.233      8306.302    1721.913      1040.689      8306.352    1754.270
     1172.956      8387.217    1722.894      1184.237      8387.508    1766.691
     1310.880      8468.094    1722.782      1324.707      8468.601    1764.677
     1448.874      8548.956    1725.198      1465.950      8549.712    1767.876
     1587.481      8629.830    1730.462      1608.396      8630.887    1773.978
     1725.615      8710.662    1734.369      1744.296      8711.716    1766.036
     1864.251      8791.495    1737.430      1887.107      8792.927    1768.279
     2002.926      8872.300    1739.217      2035.113      8874.543    1775.508
     2142.368      8953.127    1740.311      2184.295      8956.388    1782.634
     2284.880      9034.190    1742.515      2324.532      9037.651    1779.243
     2421.515      9114.704    1738.414      2470.459      9119.532    1780.122
     2561.324      9195.462    1736.487      2623.290      9202.412    1783.798
     2691.483      9274.942    1727.435      2761.533      9283.934    1774.071
     2829.231      9355.132    1725.232      2911.990      9367.310    1772.636
     2967.688      9435.214    1723.695      3045.011      9448.331    1763.860
     3098.979      9513.452    1717.827      3178.307      9529.404    1760.233
     3240.925      9593.167    1717.952      3331.179      9615.100    1770.270
     3385.160      9673.233    1719.412      3465.470      9697.014    1769.816
     3526.448      9752.200    1717.379      3599.209      9778.512    1766.855
     3666.797      9830.358    1716.615      3738.359      9861.882    1768.478
     3809.387      9909.155    1719.949      3875.836      9944.615    1770.156
     3959.583      9992.860    1732.117      4010.065     10025.052    1771.590
     4102.570     10073.169    1743.175      4152.961     10110.859    1785.691
     4244.812     10153.472    1758.470      4294.672     10196.394    1807.941
     4392.309     10239.648    1784.856      4442.035     10287.440    1842.405
     4521.519     10308.890    1795.970      4593.098     10382.384    1884.099
     4685.957     10415.058    1852.010      4722.415     10453.175    1899.354
     4824.531     10494.121    1876.471      4860.310     10530.801    1923.355
     4977.184     10586.721    1915.527      5014.278     10623.140    1960.544
     5107.959     10657.697    1920.937      5145.577     10693.228    1961.276
     5230.443     10721.771    1915.045      5271.092     10759.165    1953.666
     5358.728     10791.808    1912.253      5406.816     10835.228    1955.190
     5501.291     10874.885    1917.375      5541.058     10910.270    1954.447
     5646.705     10960.424    1921.102      5678.839     10988.653    1954.963
     5786.684     11041.147    1918.499      5813.216     11064.205    1949.799
     5932.915     11127.252    1926.358      5957.828     11148.740    1955.965
     6074.107     11208.953    1925.953      6096.687     11228.361    1955.660
      556.127      7844.818    1713.386       556.359      7844.411    1749.459
      695.833      7925.798    1715.076       697.205      7925.475    1750.104
      835.643      8006.754    1720.505       837.996      8006.563    1746.976
      974.930      8087.726    1720.993       979.232      8087.637    1748.146
     1114.018      8168.670    1722.308      1120.881      8168.736    1751.728
     1252.658      8249.591    1723.496      1263.266      8249.871    1758.761
     1391.010      8330.491    1725.502      1406.224      8331.043    1766.495
     1528.606      8411.350    1727.459      1549.882      8412.261    1776.315
     1665.885      8492.174    1730.519      1687.865      8493.229    1773.758
     1805.149      8573.077    1736.856      1822.570      8573.998    1765.612
     1945.166      8654.012    1741.138      1967.891      8655.326    1770.545
     2080.989      8734.667    1739.011      2112.823      8736.692    1772.672
     2219.503      8815.439    1738.645      2260.882      8818.354    1777.452
     2360.626      8896.372    1738.189      2409.380      8900.198    1779.342
     2505.201      8977.605    1738.461      2564.481      8982.820    1783.986
     2647.555      9058.700    1735.463      2705.951      9064.497    1775.516
     2778.474      9138.555    1725.045      2845.161      9146.078    1764.499
     2907.717      9217.883    1717.330      2995.613      9229.247    1760.319
     3039.973      9297.114    1712.914      3141.551      9312.353    1757.243
     3176.504      9376.314    1709.494      3260.890      9391.471    1748.688
     3313.140      9454.840    1707.461      3413.634      9476.879    1757.434
     3461.308      9535.582    1710.978      3545.312      9558.314    1756.197
     3604.210      9614.903    1710.198      3687.548      9642.849    1760.021
     3742.129      9691.879    1708.635      3822.220      9725.219    1760.517
     3884.656      9769.901    1711.830      3964.171      9811.131    1766.387
     4029.639      9849.166    1719.860      4089.467      9887.560    1762.965
     4169.877      9925.387    1728.316      4232.242      9974.182    1777.511
     4314.476     10005.404    1743.339      4372.333     10059.456    1798.300
     4455.984     10084.158    1759.781      4506.481     10138.083    1818.832
     4590.609     10157.050    1775.563      4682.576     10263.178    1896.384
     4714.980     10220.219    1782.272      4823.343     10346.155    1922.014
     4925.404     10381.439    1899.117      4966.240     10426.745    1952.143
     5065.112     10459.199    1921.429      5101.378     10496.541    1964.363
     5184.272     10517.596    1916.057      5227.041     10558.869    1959.642
     5307.136     10581.839    1913.302      5353.644     10624.813    1954.990
     5439.085     10655.316    1914.891      5479.980     10692.061    1950.239
     5577.305     10734.593    1916.466      5614.889     10767.713    1951.644
     5723.115     10820.513    1920.504      5759.345     10851.913    1959.362
     5870.555     10907.694    1925.986      5901.465     10934.093    1963.155
     6015.201     10992.365    1931.429      6043.332     11016.120    1964.888
     6156.659     11074.292    1931.125      6182.116     11095.641    1964.842
      635.596      7707.174    1713.201       635.822      7706.776    1744.059
      775.188      7788.186    1711.479       776.688      7787.851    1744.124
      914.494      7869.166    1712.624       916.954      7868.980    1736.581
     1054.353      7950.093    1719.120      1059.186      7950.007    1746.088
     1192.671      8031.030    1718.120      1200.755      8031.118    1748.972
     1330.854      8111.929    1719.599      1342.061      8112.225    1752.619
     1470.186      8192.858    1725.861      1486.672      8193.440    1766.031
     1609.662      8273.801    1732.945      1629.081      8274.597    1774.039
     1745.737      8354.595    1733.729      1769.738      8355.675    1778.060
     1883.255      8435.433    1736.997      1903.429      8436.412    1768.656
     2023.206      8516.372    1740.880      2055.257      8518.049    1779.945
     2165.250      8597.416    1744.418      2200.883      8599.442    1779.508
     2301.929      8678.133    1740.707      2339.580      8680.479    1773.257
     2441.959      8759.025    1737.079      2492.677      8762.511    1776.169
     2586.432      8840.241    1734.175      2638.127      8844.187    1770.384
     2726.709      8921.172    1726.753      2786.128      8926.217    1763.727
     2864.250      9001.861    1718.059      2934.761      9008.500    1755.501
     2992.651      9081.524    1708.496      3082.488      9091.057    1747.937
     3129.575      9161.528    1704.594      3223.913      9173.769    1745.429
     3271.092      9241.938    1705.185      3359.195      9255.868    1743.378
     3403.320      9320.394    1703.436      3502.182      9339.626    1747.298
     3535.053      9397.609    1701.050      3624.880      9419.400    1743.588
     3677.135      9476.411    1702.031      3775.973      9506.460    1754.014
     3823.972      9556.527    1706.767      3904.995      9587.488    1753.615
     3962.856      9632.759    1707.166      4042.218      9671.685    1757.413
     4102.336      9707.499    1710.565      4162.093      9745.440    1751.381
     4245.057      9783.318    1719.272      4311.191      9836.993    1769.710
     4393.858      9865.374    1735.093      4442.066      9914.290    1780.621
     4533.736      9940.485    1745.737      4573.290      9988.602    1794.598
     4671.831     10013.652    1759.536      4709.854     10067.828    1818.194
     4795.111     10074.403    1766.229      4904.839     10227.652    1921.778
     5005.491     10249.289    1890.806      5045.312     10298.464    1944.713
     5140.342     10319.136    1907.874      5184.993     10367.593    1961.435
     5267.063     10383.779    1913.234      5312.988     10429.093    1959.342
     5389.830     10447.460    1912.765      5434.639     10488.978    1951.792
     5520.659     10519.958    1915.300      5573.706     10567.198    1960.538
     5656.204     10596.963    1916.115      5704.422     10638.842    1961.763
     5806.173     10686.401    1926.297      5845.794     10720.128    1969.196
     5954.313     10774.024    1933.589      5987.138     10801.487    1973.016
     6099.381     10858.938    1938.309      6129.616     10883.875    1974.211