NOECHO

-- =============================================================================
-- 
-- Exported from Reek_base_sim
-- 
-- Exported by user asny from RMS11 at 2020-02-19 15:43:08
-- 
-- =============================================================================

MAPUNITS
'METRES  ' /

MAPAXES
456514.875 5939172.132
456514.875 5927115.548
467218.582 5927115.548 /

GRIDUNIT
'METRES  ' '        ' /

SPECGRID
  40  64  14   1  F  /

GDORIENT
INC INC INC DOWN RIGHT /

COORD
        0.000      8808.146    1727.276         0.161      8807.804    1755.852
      139.955      8889.181    1729.378       140.795      8888.859    1758.565
      279.781      8970.203    1734.025       281.616      8969.882    1764.966
      419.520      9051.195    1740.111       422.992      9050.894    1775.562
      558.905      9132.181    1743.609       564.610      9131.963    1783.869
      698.319      9213.137    1747.611       706.072      9213.076    1788.468
      837.246      9294.076    1749.010       847.851      9294.208    1792.239
      975.620      9374.971    1748.457       990.043      9375.379    1794.509
     1114.064      9455.828    1747.910      1131.837      9456.577    1793.468
     1252.770      9536.658    1746.802      1272.749      9537.762    1790.682
     1391.394      9617.443    1743.997      1415.036      9619.066    1791.560
     1529.005      9698.096    1738.825      1554.359      9700.196    1784.178
     1665.700      9778.570    1733.648      1693.335      9781.290    1775.923
     1803.305      9859.008    1732.903      1833.219      9862.478    1771.677
     1942.351      9939.496    1735.660      1972.912      9943.673    1769.948
     2078.683     10019.418    1735.594      2110.969     10024.636    1768.536
     2217.663     10099.528    1738.614      2255.343     10106.742    1774.847
     2358.110     10179.757    1744.212      2401.863     10189.680    1784.612
     2496.648     10259.339    1749.108      2546.912     10272.804    1794.245
     2637.987     10339.474    1756.613      2689.312     10355.634    1802.071
     2779.033     10419.406    1763.701      2829.784     10438.070    1806.460
     2919.475     10498.983    1767.984      2969.170     10520.117    1807.333
     3059.904     10578.442    1769.636      3110.179     10602.827    1810.215
     3201.908     10658.713    1770.171      3251.019     10685.455    1813.161
     3343.145     10738.728    1768.131      3387.837     10765.624    1810.093
     3480.908     10816.600    1762.402      3519.826     10842.154    1801.134
     3618.003     10893.789    1758.680      3655.600     10920.437    1797.700
     3756.848     10972.067    1760.293      3795.004     11000.992    1801.786
     3898.384     11052.502    1768.083      3935.492     11082.311    1811.198
     4038.944     11132.388    1779.562      4077.465     11164.859    1826.646
     4182.844     11215.433    1802.520      4224.909     11252.243    1852.662
     4328.481     11300.461    1828.668      4373.375     11340.779    1879.982
     4465.944     11378.391    1843.345      4511.189     11419.688    1894.255
     4611.774     11464.112    1866.689      4654.868     11503.812    1915.005
     4761.764     11553.829    1895.552      4799.284     11588.596    1936.782
     4907.091     11639.321    1914.907      4942.055     11671.884    1948.959
     5045.736     11718.614    1922.111      5078.428     11749.237    1952.273
     5181.473     11795.153    1923.102      5208.432     11820.568    1949.938
     5321.494     11875.701    1926.306      5346.229     11899.188    1954.330
     5462.348     11957.034    1930.725      5484.392     11978.141    1959.151
     5602.739     12037.918    1930.484      5622.045     12056.584    1958.913
       79.450      8670.503    1727.306        79.631      8670.186    1755.863
      219.435      8751.541    1729.423       220.271      8751.235    1758.622
      359.298      8832.561    1734.067       361.126      8832.255    1765.027
      499.079      8913.554    1740.120       502.502      8913.276    1775.574
      638.514      8994.541    1743.668       644.054      8994.354    1783.897
      777.949      9075.501    1747.643       785.347      9075.466    1788.492
      916.902      9156.441    1749.054       926.841      9156.590    1792.235
     1055.341      9237.341    1748.528      1068.771      9237.746    1794.515
     1193.880      9318.208    1747.973      1210.629      9318.931    1793.491
     1332.693      9399.055    1746.848      1351.353      9400.091    1790.694
     1471.470      9479.865    1744.036      1492.771      9481.316    1791.571
     1609.516      9560.573    1738.835      1632.459      9562.445    1784.259
     1746.891      9641.148    1733.736      1772.314      9643.595    1775.945
     1885.322      9721.731    1733.037      1912.850      9724.841    1771.682
     2025.071      9802.386    1735.719      2053.003      9806.096    1769.955
     2162.503      9882.603    1735.778      2191.980      9887.223    1768.616
     2302.420      9963.049    1738.896      2337.336      9969.532    1774.990
     2443.302     10043.584    1744.448      2484.792     10052.721    1784.819
     2582.207     10123.535    1749.523      2630.756     10136.187    1794.478
     2723.773     10204.037    1757.024      2774.143     10219.505    1802.254
     2865.261     10284.472    1764.078      2915.775     10302.650    1806.539
     3006.328     10364.700    1768.229      3055.396     10385.199    1807.447
     3147.038     10444.724    1769.863      3195.775     10468.035    1810.471
     3288.737     10525.261    1770.213      3335.535     10550.474    1813.277
     3430.149     10605.787    1767.941      3472.005     10630.770    1809.857
     3568.802     10684.659    1762.137      3605.082     10708.321    1801.011
     3706.006     10762.380    1758.661      3741.319     10787.265    1797.941
     3843.937     10840.403    1760.650      3879.779     10867.436    1802.238
     3984.022     10920.025    1768.564      4018.276     10947.421    1811.611
     4123.176     10998.980    1780.223      4157.951     11028.189    1826.973
     4266.006     11081.246    1803.314      4302.315     11112.915    1852.252
     4409.045     11164.024    1828.851      4447.450     11198.396    1878.961
     4545.792     11241.339    1843.394      4584.950     11276.933    1893.683
     4690.883     11326.369    1866.618      4727.892     11360.291    1913.985
     4839.006     11414.317    1895.077      4871.299     11444.052    1935.439
     4983.411     11498.912    1914.570      5015.331     11528.416    1948.488
     5123.186     11579.248    1922.069      5154.204     11608.058    1952.302
     5260.383     11657.176    1923.112      5286.568     11681.634    1950.122
     5401.400     11738.659    1926.341      5425.605     11761.416    1954.403
     5542.543     11820.267    1930.742      5564.554     11841.119    1959.201
     5682.601     11900.839    1930.497      5702.214     11919.595    1958.966
      158.889      8532.911    1725.720       159.104      8532.535    1756.025
      298.783      8613.952    1726.696       299.678      8613.628    1754.979
      438.563      8694.958    1731.441       440.490      8694.651    1760.798
      578.481      8775.920    1739.491       582.228      8775.645    1774.652
      717.579      8856.908    1740.962       723.887      8856.739    1783.236
      857.064      8937.855    1745.947       865.211      8937.863    1788.300
      995.867      9018.785    1747.350      1007.235      9019.004    1794.575
     1133.990      9099.668    1746.398      1148.446      9100.145    1794.096
     1272.273      9180.521    1745.810      1290.790      9181.346    1793.814
     1411.389      9261.382    1745.926      1431.597      9262.505    1791.049
     1549.528      9342.155    1742.296      1574.076      9343.793    1793.917
     1688.047      9422.908    1738.415      1712.699      9424.845    1784.768
     1824.339      9503.406    1731.225      1850.310      9505.786    1772.841
     1962.811      9584.004    1730.259      1990.832      9586.990    1768.820
     2103.986      9664.841    1734.387      2130.650      9668.161    1767.027
     2239.372      9744.814    1731.663      2267.950      9749.000    1763.536
     2381.767      9825.671    1737.257      2417.428      9831.861    1773.303
     2522.861      9906.290    1742.507      2563.954      9914.769    1780.611
     2659.258      9985.700    1744.697      2709.567      9998.038    1788.512
     2802.034     10066.470    1752.406      2852.760     10081.215    1794.550
     2945.713     10147.601    1759.981      2997.825     10165.492    1800.741
     3085.862     10227.506    1762.688      3133.690     10246.742    1799.345
     3225.916     10307.199    1763.492      3273.818     10329.463    1802.685
     3368.532     10388.127    1764.702      3418.013     10414.251    1809.738
     3511.469     10469.523    1764.369      3552.706     10493.799    1805.231
     3648.375     10547.363    1757.158      3682.910     10569.672    1793.495
     3784.488     10624.339    1753.160      3818.270     10647.974    1789.920
     3921.660     10701.765    1755.429      3958.165     10729.144    1797.099
     4065.091     10783.995    1768.937      4097.048     10809.443    1809.124
     4199.179     10858.810    1775.745      4232.917     10887.052    1821.874
     4342.708     10941.596    1801.005      4377.227     10971.607    1849.387
     4490.619     11028.678    1835.098      4527.469     11061.521    1885.627
     4621.882     11101.104    1842.995      4659.811     11135.374    1893.980
     4767.870     11186.919    1867.895      4804.119     11219.862    1915.463
     4920.233     11278.656    1901.127      4955.276     11310.557    1943.825
     5064.021     11362.631    1918.795      5092.156     11388.275    1948.074
     5199.448     11438.995    1921.431      5231.330     11468.119    1951.872
     5333.407     11513.995    1918.528      5359.355     11537.779    1944.275
     5476.730     11597.565    1923.185      5503.750     11622.446    1952.717
     5618.618     11679.824    1927.870      5643.657     11703.023    1957.609
     5758.888     11760.579    1927.635      5781.400     11781.606    1957.381
      238.348      8395.283    1726.887       238.624      8394.800    1761.029
      378.136      8476.365    1724.410       379.239      8475.961    1755.622
      517.812      8557.359    1728.801       520.265      8556.976    1762.005
      657.289      8638.330    1733.486       661.165      8638.064    1765.691
      796.554      8719.278    1737.609       803.692      8719.120    1780.527
      935.502      8800.209    1740.621       945.122      8800.255    1786.491
     1074.457      8881.124    1743.666      1087.663      8881.416    1794.535
     1213.236      8962.021    1745.486      1230.961      8962.635    1799.612
     1350.731      9042.842    1743.650      1372.554      9043.827    1795.854
     1490.615      9123.747    1746.120      1516.290      9125.156    1798.296
     1629.000      9204.550    1743.731      1660.399      9206.583    1802.117
     1768.829      9285.423    1742.553      1800.228      9287.781    1795.268
     1904.823      9365.950    1734.716      1934.908      9368.554    1779.078
     2042.161      9446.490    1731.612      2069.671      9449.233    1767.345
     2181.755      9527.168    1733.454      2209.154      9530.341    1765.806
     2320.735      9607.686    1734.360      2351.736      9611.896    1767.797
     2463.970      9688.752    1739.977      2497.657      9694.171    1771.994
     2605.670      9769.610    1744.553      2643.151      9776.793    1776.300
     2743.457      9849.578    1746.681      2788.611      9859.908    1782.096
     2881.998      9929.406    1749.481      2943.111      9946.089    1794.753
     3025.590     10010.503    1755.081      3077.781     10027.486    1792.214
     3167.632     10091.171    1758.163      3221.580     10111.968    1797.218
     3310.833     10172.405    1761.342      3359.761     10194.473    1800.149
     3454.514     10254.167    1764.537      3503.396     10279.507    1807.823
     3593.595     10333.663    1762.367      3632.353     10356.283    1799.401
     3734.261     10414.058    1761.067      3768.322     10436.017    1794.761
     3869.470     10490.731    1757.741      3906.938     10517.001    1795.891
     4009.070     10570.253    1764.057      4049.158     10600.470    1807.703
     4148.289     10649.507    1774.945      4178.366     10673.647    1811.720
     4289.704     10730.665    1794.165      4321.347     10757.369    1836.914
     4430.718     10811.704    1818.138      4464.558     10841.280    1865.785
     4568.646     10890.132    1839.553      4609.495     10926.599    1896.554
     4702.495     10964.929    1851.701      4741.346     10999.961    1904.445
     4854.329     11056.048    1884.533      4887.005     11085.580    1926.712
     5007.742     11148.644    1916.371      5037.854     11175.825    1950.678
     5141.089     11223.145    1920.254      5168.764     11248.083    1947.470
     5273.492     11296.834    1919.433      5306.015     11326.112    1949.085
     5413.196     11377.109    1921.328      5439.835     11401.101    1946.452
     5555.331     11459.571    1924.362      5584.877     11486.236    1954.680
     5696.904     11541.523    1928.273      5724.722     11566.730    1958.688
     5837.331     11622.428    1928.072      5862.428     11645.312    1958.514
      317.842      8257.595    1731.011       318.145      8257.066    1763.047
      457.757      8338.677    1729.076       458.791      8338.298    1754.777
      597.430      8419.702    1730.772       599.959      8419.316    1760.802
      736.717      8500.695    1732.909       741.584      8500.380    1768.012
      875.452      8581.650    1734.075       882.940      8581.509    1773.327
     1014.137      8662.563    1736.500      1024.424      8662.640    1779.995
     1152.740      8743.457    1738.889      1168.437      8743.833    1793.318
     1291.803      8824.354    1742.224      1311.949      8825.072    1797.940
     1429.344      8905.176    1741.632      1451.500      8906.174    1788.986
     1567.653      8986.000    1741.818      1595.616      8987.502    1791.771
     1708.911      9066.978    1745.311      1742.823      9069.089    1799.564
     1848.471      9147.851    1744.223      1886.339      9150.550    1798.942
     1987.251      9228.644    1741.090      2023.653      9231.600    1788.224
     2121.071      9308.936    1733.540      2154.967      9312.078    1773.331
     2260.566      9389.636    1734.853      2296.694      9393.495    1774.251
     2403.641      9470.708    1739.402      2441.422      9475.417    1776.997
     2547.011      9551.882    1743.230      2584.221      9557.366    1775.357
     2688.356      9632.807    1745.608      2732.443      9640.554    1778.819
     2829.629      9713.711    1748.637      2884.707      9725.312    1786.394
     2963.826      9792.803    1747.036      3022.589      9807.689    1785.070
     3100.210      9871.790    1746.194      3149.133      9886.724    1777.362
     3239.583      9951.155    1746.074      3296.876      9972.161    1784.659
     3383.206     10031.983    1748.551      3442.848     10057.969    1793.863
     3528.252     10113.839    1752.987      3586.192     10143.313    1802.214
     3670.664     10194.815    1755.186      3718.283     10222.464    1798.028
     3815.092     10277.441    1759.477      3853.150     10302.110    1794.197
     3954.877     10357.375    1762.607      4000.135     10389.524    1804.932
     4096.266     10438.570    1772.573      4134.581     10468.022    1811.614
     4231.622     10515.019    1782.022      4258.389     10537.074    1813.090
     4380.225     10602.662    1813.089      4408.915     10627.563    1849.846
     4518.480     10681.669    1835.627      4553.230     10712.646    1883.593
     4643.276     10748.437    1840.281      4685.741     10786.779    1899.318
     4783.137     10828.730    1862.699      4823.104     10864.894    1915.810
     4942.018     10926.248    1904.020      4973.358     10954.516    1942.308
     5084.154     11008.606    1919.511      5110.610     11032.355    1947.459
     5209.394     11075.883    1914.506      5236.852     11100.411    1939.716
     5346.275     11153.665    1917.031      5373.940     11178.268    1940.890
     5493.409     11240.567    1924.467      5520.246     11264.359    1948.636
     5633.104     11320.860    1924.661      5667.305     11351.142    1958.109
     5776.004     11403.982    1929.411      5807.362     11431.780    1961.534
     5916.539     11484.997    1929.166      5944.922     11510.256    1961.401
      397.290      8119.988    1728.760       397.657      8119.346    1762.866
      537.284      8201.022    1729.939       538.524      8200.572    1757.216
      676.951      8282.059    1730.735       679.292      8281.710    1755.123
      816.064      8363.065    1731.485       821.578      8362.728    1765.817
      954.097      8444.024    1729.845       962.729      8443.887    1768.617
     1092.945      8524.919    1733.425      1104.719      8525.031    1776.242
     1230.978      8605.791    1734.576      1246.813      8606.192    1782.418
     1367.920      8686.604    1733.631      1390.024      8687.402    1787.258
     1506.255      8767.440    1736.212      1530.416      8768.520    1780.902
     1643.958      8848.227    1736.602      1671.443      8849.663    1778.626
     1784.248      8929.133    1739.458      1820.618      8931.303    1788.727
     1925.933      9010.132    1742.331      1968.447      9012.997    1794.212
     2067.661      9091.152    1743.738      2105.336      9094.010    1785.341
     2204.658      9171.789    1740.374      2242.720      9175.047    1779.346
     2345.839      9252.747    1742.207      2388.410      9256.901    1783.248
     2483.849      9333.349    1740.332      2531.060      9338.678    1781.901
     2624.252      9414.148    1740.073      2668.086      9419.967    1773.722
     2769.505      9495.659    1743.540      2821.548      9503.889    1777.828
     2902.341      9575.033    1739.927      2954.903      9585.026    1771.015
     3030.052      9652.510    1734.152      3094.226      9667.347    1770.393
     3165.043      9730.536    1731.506      3230.484      9749.034    1768.719
     3311.714      9811.530    1734.078      3380.310      9835.204    1776.584
     3457.564      9892.635    1736.895      3520.354      9918.889    1782.121
     3603.130      9974.186    1741.989      3661.951     10003.474    1789.443
     3746.890     10055.460    1746.356      3802.188     10087.475    1792.340
     3893.163     10138.979    1753.935      3944.804     10172.891    1797.101
     4039.045     10223.202    1764.251      4084.386     10256.257    1803.098
     4178.890     10303.484    1774.617      4214.562     10331.962    1808.627
     4312.614     10378.537    1784.886      4340.319     10402.450    1815.652
     4449.888     10456.335    1804.458      4507.446     10508.853    1873.512
     4597.742     10544.218    1839.028      4639.070     10582.643    1894.409
     4726.386     10614.240    1850.663      4770.813     10655.557    1911.433
     4876.206     10703.852    1888.010      4918.775     10742.911    1942.456
     5023.812     10791.169    1914.117      5065.860     10829.218    1962.031
     5148.969     10858.243    1910.744      5186.969     10892.264    1947.950
     5278.915     10929.845    1910.510      5313.092     10960.172    1939.857
     5422.385     11013.528    1917.404      5458.477     11045.304    1947.097
     5571.206     11101.872    1925.023      5604.350     11130.852    1954.049
     5708.738     11180.320    1922.496      5747.566     11214.092    1959.621
     5853.951     11265.437    1929.009      5888.382     11295.316    1962.863
     5994.697     11346.649    1928.674      6025.974     11373.821    1962.742
      476.711      7982.427    1723.664       477.057      7981.822    1753.264
      616.574      8063.450    1725.124       617.798      8063.015    1749.467
      756.117      8144.467    1726.829       759.212      8144.022    1755.591
      895.026      8225.458    1727.842       901.871      8225.064    1765.060
     1033.563      8306.386    1729.539      1042.135      8306.271    1762.510
     1171.551      8387.273    1730.199      1183.254      8387.406    1766.222
     1309.083      8468.123    1730.654      1324.375      8468.525    1769.489
     1446.479      8548.944    1731.663      1468.837      8549.757    1776.855
     1583.577      8629.730    1732.073      1611.534      8630.962    1775.522
     1721.491      8710.529    1733.373      1748.879      8711.917    1768.592
     1859.707      8791.319    1734.273      1896.107      8793.395    1775.727
     2000.462      8872.243    1736.950      2038.599      8874.665    1776.117
     2144.021      8953.366    1740.978      2184.357      8956.211    1778.697
     2286.541      9034.450    1743.143      2335.177      9038.269    1785.890
     2427.946      9115.471    1743.738      2480.199      9120.075    1787.286
     2571.314      9196.708    1744.372      2621.924      9201.791    1783.237
     2707.225      9277.162    1738.749      2765.339      9283.971    1778.186
     2844.218      9357.566    1735.116      2904.872      9366.017    1769.592
     2974.731      9436.623    1730.149      3056.078      9450.253    1771.149
     3107.767      9515.263    1727.054      3188.950      9532.046    1767.453
     3245.459      9594.054    1725.267      3319.188      9613.056    1762.897
     3387.565      9673.482    1724.202      3454.685      9695.019    1762.148
     3529.523      9752.570    1723.587      3589.980      9776.595    1763.968
     3671.836      9831.667    1725.992      3734.000      9861.792    1772.601
     3819.146      9913.800    1733.580      3875.863      9946.524    1776.984
     3965.451      9996.562    1742.352      4022.488     10034.711    1786.176
     4111.238     10080.129    1753.637      4166.453     10121.949    1797.407
     4255.816     10163.767    1768.624      4294.112     10196.113    1803.322
     4394.109     10242.539    1784.471      4426.740     10272.653    1820.258
     4521.514     10310.836    1793.585      4601.382     10388.772    1888.734
     4685.441     10415.239    1848.445      4730.136     10459.604    1906.532
     4821.154     10491.590    1871.124      4868.698     10538.090    1934.406
     4970.243     10580.463    1907.867      5010.740     10618.680    1957.648
     5100.632     10651.650    1914.503      5145.487     10692.653    1962.577
     5222.790     10715.973    1909.532      5278.734     10766.063    1960.730
     5360.834     10794.840    1915.847      5411.345     10839.423    1956.887
     5507.774     10881.527    1924.334      5550.475     10918.788    1958.377
     5650.213     10964.243    1926.100      5688.011     10996.877    1958.847
     5787.581     11042.614    1922.800      5827.779     11077.000    1961.226
     5933.411     11128.213    1929.746      5968.913     11158.393    1963.923
     6074.289     11209.558    1929.385      6106.637     11236.993    1963.832
      556.108      7844.908    1716.383       556.524      7844.181    1750.244
      695.808      7925.892    1719.464       697.642      7925.261    1753.184
      835.082      8006.898    1721.494       839.059      8006.352    1755.185
      974.114      8087.839    1725.216       982.410      8087.395    1765.452
     1113.520      8168.743    1730.582      1123.092      8168.640    1762.590
     1252.467      8249.656    1733.593      1262.972      8249.792    1760.978
     1389.764      8330.523    1732.865      1404.713      8330.929    1764.253
     1526.550      8411.342    1731.965      1550.231      8412.206    1771.043
     1662.284      8492.085    1730.076      1692.672      8493.403    1769.196
     1800.717      8572.922    1731.699      1830.811      8574.399    1764.138
     1938.297      8653.700    1732.151      1976.010      8655.750    1768.501
     2078.539      8734.607    1734.758      2124.306      8737.337    1774.823
     2218.336      8815.482    1735.882      2270.172      8818.862    1777.328
     2360.797      8896.538    1737.618      2415.805      8900.458    1779.040
     2509.438      8978.102    1741.867      2565.128      8982.462    1781.737
     2656.231      9059.646    1742.177      2712.681      9064.579    1779.839
     2787.520      9139.810    1731.859      2851.783      9146.257    1770.100
     2923.803      9220.257    1726.773      2999.415      9229.277    1763.839
     3061.779      9300.672    1725.143      3144.809      9312.707    1761.245
     3196.039      9380.036    1722.349      3275.271      9394.433    1758.223
     3327.865      9458.039    1718.223      3402.698      9475.302    1752.998
     3466.398      9536.590    1715.633      3540.431      9558.290    1753.672
     3603.796      9613.845    1712.709      3674.150      9639.986    1755.019
     3742.789      9690.696    1712.631      3810.308      9722.097    1758.091
     3887.031      9769.788    1717.674      3941.877      9801.042    1756.388
     4037.851      9854.011    1730.164      4089.799      9889.349    1767.624
     4174.828      9929.642    1735.089      4229.917      9973.287    1776.796
     4322.135     10013.999    1750.361      4361.348     10049.540    1785.285
     4459.488     10090.399    1761.694      4494.064     10125.201    1800.235
     4590.884     10160.965    1772.634      4690.512     10268.300    1896.455
     4716.561     10226.260    1778.928      4825.084     10344.999    1918.646
     4917.853     10373.175    1887.291      4971.710     10429.828    1958.074
     5060.220     10454.346    1916.203      5102.216     10495.721    1966.842
     5177.486     10512.149    1910.287      5225.337     10556.721    1959.604
     5302.593     10579.025    1910.363      5360.879     10631.370    1961.155
     5443.760     10660.696    1919.422      5499.231     10709.379    1962.741
     5587.252     10744.327    1925.122      5632.472     10783.386    1960.456
     5725.825     10823.732    1923.676      5766.959     10858.760    1959.111
     5871.976     10909.588    1928.104      5908.529     10940.315    1963.180
     6016.799     10994.247    1933.922      6050.544     11022.331    1965.978
     6157.647     11075.565    1933.613      6188.296     11100.927    1965.899
      635.589      7707.243    1716.095       636.064      7706.411    1753.669
      774.962      7788.353    1713.107       777.169      7787.624    1750.943
      914.166      7869.305    1717.683       918.375      7868.758    1750.639
     1053.610      7950.197    1724.530      1060.691      7949.850    1755.766
     1192.921      8031.108    1729.336      1203.142      8031.026    1759.728
     1331.295      8112.014    1730.832      1345.849      8112.229    1763.551
     1468.151      8192.864    1729.673      1486.625      8193.383    1762.159
     1606.962      8273.754    1731.869      1634.012      8274.744    1768.739
     1743.264      8354.541    1730.192      1777.258      8355.990    1766.768
     1882.075      8435.421    1731.151      1917.533      8437.100    1763.740
     2016.875      8516.088    1728.968      2064.068      8518.521    1768.529
     2157.453      8597.034    1732.046      2211.896      8600.061    1773.964
     2295.152      8677.812    1731.966      2350.274      8681.100    1770.641
     2435.056      8758.709    1731.114      2495.786      8762.585    1770.843
     2584.129      8840.231    1732.860      2648.862      8844.664    1773.101
     2727.790      8921.455    1728.293      2791.993      8926.212    1765.579
     2872.169      9002.805    1723.108      2941.236      9008.446    1758.808
     3006.487      9083.294    1715.874      3086.318      9090.875    1750.859
     3138.292      9163.053    1711.018      3223.507      9173.483    1747.994
     3283.976      9244.291    1714.268      3371.068      9258.002    1752.288
     3416.972      9323.242    1712.258      3496.087      9339.271    1746.787
     3538.646      9398.115    1703.740      3616.748      9418.572    1740.614
     3680.700      9476.558    1704.399      3756.995      9502.407    1745.560
     3818.723      9552.807    1704.243      3886.726      9582.214    1745.045
     3962.114      9630.510    1707.903      4020.260      9662.402    1745.962
     4107.030      9709.245    1715.604      4154.053      9741.426    1748.335
     4249.039      9786.731    1723.393      4294.862      9824.621    1757.877
     4392.262      9865.953    1732.762      4434.725      9907.364    1771.280
     4532.126      9942.810    1741.807      4566.189      9980.985    1781.595
     4666.958     10013.171    1750.531      4703.253     10060.073    1801.250
     4792.123     10076.471    1758.219      4905.301     10223.942    1912.949
     4998.233     10240.357    1877.917      5043.942     10293.653    1939.369
     5135.323     10314.103    1901.914      5183.998     10364.492    1960.835
     5259.625     10377.567    1906.595      5311.426     10426.839    1958.992
     5388.627     10447.669    1912.216      5441.516     10495.289    1956.991
     5521.160     10521.710    1915.666      5569.592     10563.854    1952.549
     5660.602     10601.922    1919.329      5706.629     10641.126    1954.766
     5812.738     10692.804    1930.061      5850.359     10724.290    1962.108
     5957.185     10777.079    1934.302      5991.051     10804.977    1966.198
     6101.704     10861.362    1938.923      6133.567     10887.268    1968.651