NOECHO

-- =============================================================================
-- 
-- Exported from Reek_base_sim
-- 
-- Exported by user asny from RMS11 at 2020-02-19 16:31:35
-- 
-- =============================================================================

MAPUNITS
'METRES  ' /

MAPAXES
456514.888 5939176.968
456514.888 5927115.548
467217.265 5927115.548 /

GRIDUNIT
'METRES  ' '        ' /

SPECGRID
  40  64  14   1  F  /

GDORIENT
INC INC INC DOWN RIGHT /

COORD
        0.000      8808.121    1740.793         0.156      8807.785    1774.461
      140.000      8889.164    1741.181       140.842      8888.837    1773.739
      279.886      8970.199    1742.295       281.636      8969.872    1774.768
      419.725      9051.207    1744.705       422.859      9050.887    1779.459
      559.410      9132.208    1746.315       564.274      9131.939    1781.522
      698.891      9213.201    1747.313       705.741      9213.022    1782.243
      838.167      9294.180    1748.415       847.474      9294.123    1784.375
      977.291      9375.136    1748.903       988.790      9375.247    1785.600
     1115.670      9456.047    1746.306      1128.812      9456.359    1782.825
     1253.783      9536.901    1743.132      1270.942      9537.543    1785.501
     1391.969      9617.696    1740.935      1413.732      9618.817    1788.857
     1530.478      9698.442    1741.241      1555.394      9700.106    1788.806
     1668.144      9779.048    1741.580      1695.172      9781.309    1784.556
     1805.472      9859.499    1741.916      1835.342      9862.567    1781.360
     1944.036      9939.934    1743.741      1977.254      9944.095    1781.904
     2081.699     10020.072    1744.232      2119.216     10025.788    1784.217
     2219.802     10100.035    1744.841      2258.285     10107.144    1785.078
     2358.910     10179.939    1746.934      2397.013     10188.432    1786.861
     2500.244     10260.195    1752.549      2538.997     10270.537    1792.915
     2642.270     10340.608    1760.101      2682.040     10353.208    1801.223
     2783.496     10420.747    1766.497      2825.562     10436.409    1809.898
     2922.669     10499.969    1768.706      2966.652     10518.957    1811.690
     3061.159     10578.619    1767.369      3106.982     10601.196    1809.015
     3201.147     10657.837    1765.637      3246.469     10682.892    1806.132
     3342.419     10737.814    1764.547      3384.196     10763.321    1803.098
     3482.082     10816.856    1763.124      3519.941     10842.076    1800.001
     3621.714     10895.849    1763.912      3658.139     10922.071    1801.898
     3761.283     10974.792    1767.033      3797.920     11003.045    1808.624
     3902.253     11054.935    1773.097      3937.585     11083.845    1817.810
     4043.432     11135.497    1785.007      4078.208     11165.353    1832.131
     4187.363     11218.784    1810.656      4225.884     11253.076    1859.952
     4333.372     11304.363    1838.316      4374.352     11341.737    1888.305
     4469.557     11381.193    1849.935      4511.030     11419.549    1901.990
     4613.147     11464.980    1870.835      4652.750     11501.851    1922.091
     4761.704     11553.501    1899.573      4798.192     11587.587    1945.158
     4903.578     11635.832    1915.940      4941.082     11670.967    1961.628
     5041.279     11714.258    1921.097      5078.940     11749.662    1967.347
     5179.754     11793.401    1922.139      5213.696     11825.444    1966.950
     5321.010     11875.161    1924.984      5350.865     11903.493    1968.163
     5462.585     11957.224    1929.455      5489.595     11983.026    1972.021
     5603.384     12038.546    1929.208      5627.137     12061.420    1971.865
       79.456      8670.470    1740.818        79.646      8670.136    1774.475
      219.508      8751.516    1741.215       220.375      8751.191    1773.778
      359.455      8832.550    1742.336       361.244      8832.224    1774.806
      499.375      8913.559    1744.741       502.572      8913.244    1779.476
      639.177      8994.563    1746.358       644.062      8994.306    1781.551
      778.842      9075.560    1747.353       785.569      9075.397    1782.270
      918.185      9156.547    1748.483       927.259      9156.503    1784.407
     1057.244      9237.512    1748.919      1068.387      9237.628    1785.602
     1195.691      9318.437    1746.348      1208.310      9318.735    1782.867
     1333.905      9399.306    1743.192      1350.269      9399.907    1785.509
     1472.213      9480.125    1741.023      1492.829      9481.159    1788.854
     1610.958      9560.910    1741.310      1634.257      9562.416    1788.814
     1749.148      9641.592    1741.640      1774.189      9643.610    1784.570
     1887.386      9722.183    1742.018      1914.908      9724.906    1781.367
     2026.799      9802.798    1743.834      2057.224      9806.466    1781.909
     2165.128      9883.156    1744.345      2199.710      9888.229    1784.227
     2303.900      9963.399    1745.036      2339.779      9969.796    1785.089
     2443.716     10043.659    1747.247      2479.542     10051.391    1786.952
     2585.886     10124.374    1753.004      2622.711     10133.925    1793.126
     2727.867     10205.086    1760.533      2766.496     10217.020    1801.509
     2868.944     10285.511    1766.780      2910.500     10300.660    1810.116
     3008.673     10365.332    1768.792      3051.472     10383.498    1811.682
     3148.168     10444.876    1767.410      3191.459     10465.919    1809.001
     3288.882     10524.933    1765.683      3330.887     10547.914    1806.181
     3430.388     10605.516    1764.548      3468.870     10628.816    1803.063
     3570.409     10685.268    1763.176      3605.780     10708.666    1800.173
     3710.294     10764.921    1764.119      3744.346     10789.288    1802.296
     3849.333     10843.938    1767.403      3883.323     10870.009    1809.224
     3988.079     10922.683    1773.496      4020.881     10949.396    1818.224
     4127.619     11002.106    1785.771      4159.779     11029.601    1832.712
     4271.203     11085.228    1811.686      4305.064     11115.256    1859.993
     4414.668     11168.580    1838.567      4450.307     11200.949    1887.597
     4549.671     11244.367    1850.007      4586.358     11278.136    1901.633
     4692.329     11327.281    1870.779      4727.154     11359.524    1921.244
     4839.683     11414.641    1899.281      4872.197     11444.810    1944.175
     4981.408     11496.815    1915.784      5016.621     11529.550    1961.191
     5119.747     11575.849    1921.083      5156.057     11609.694    1967.332
     5259.067     11655.796    1922.148      5292.075     11686.671    1967.069
     5401.115     11738.293    1925.024      5430.379     11765.792    1968.370
     5542.911     11820.562    1929.476      5569.656     11845.842    1972.182
     5683.346     11901.542    1929.227      5707.271     11924.328    1972.020
      158.913      8532.846    1739.280       159.144      8532.444    1773.755
      298.935      8613.902    1738.776       299.902      8613.536    1771.139
      438.797      8694.942    1739.193       440.850      8694.574    1772.330
      578.684      8775.943    1742.013       582.311      8775.599    1777.096
      718.222      8856.951    1742.515       723.502      8856.693    1776.926
      857.857      8937.937    1744.333       864.859      8937.788    1777.628
      996.684      9018.919    1744.282      1006.283      9018.891    1779.381
     1136.635      9099.883    1748.440      1149.256      9100.021    1786.849
     1274.399      9180.797    1744.789      1287.018      9181.087    1778.605
     1412.518      9261.666    1742.079      1430.783      9262.301    1785.841
     1550.768      9342.489    1740.170      1574.186      9343.585    1790.743
     1689.813      9423.301    1741.005      1715.541      9424.838    1790.589
     1827.715      9503.984    1740.454      1854.151      9505.943    1784.043
     1965.542      9584.564    1739.697      1992.292      9586.988    1777.159
     2105.086      9665.203    1741.357      2133.588      9668.353    1776.769
     2243.610      9745.612    1741.677      2278.907      9750.374    1781.998
     2381.845      9825.794    1741.256      2418.297      9831.801    1780.761
     2521.146      9905.943    1742.246      2559.241      9913.594    1782.389
     2665.150      9987.026    1748.866      2704.221      9996.528    1788.956
     2806.400     10067.514    1754.779      2846.306     10079.176    1794.328
     2949.037     10148.432    1761.606      2994.270     10164.179    1805.554
     3089.693     10228.677    1763.775      3134.327     10246.947    1806.662
     3228.285     10307.878    1761.287      3269.590     10327.424    1800.857
     3368.136     10387.472    1758.917      3408.829     10409.317    1798.799
     3510.027     10468.228    1758.929      3546.374     10489.951    1795.653
     3649.750     10547.777    1757.640      3684.678     10570.676    1793.412
     3789.861     10627.584    1759.173      3823.687     10651.630    1795.914
     3927.790     10705.784    1761.723      3961.639     10731.609    1802.421
     4067.192     10785.052    1770.395      4099.777     10811.465    1814.169
     4201.953     10860.428    1778.114      4234.380     10888.037    1824.883
     4348.775     10946.273    1809.180      4380.439     10974.223    1855.181
     4497.874     11034.681    1845.757      4531.072     11064.663    1892.907
     4627.092     11105.265    1850.469      4661.355     11136.573    1899.873
     4768.359     11186.886    1870.024      4802.654     11218.341    1920.478
     4921.216     11279.221    1906.237      4950.828     11306.372    1946.825
     5062.270     11360.752    1920.473      5096.863     11392.454    1963.356
     5195.867     11435.466    1919.253      5234.132     11470.545    1965.259
     5334.013     11514.348    1918.194      5370.090     11547.473    1963.952
     5476.819     11597.508    1921.292      5505.902     11624.286    1961.327
     5619.147     11680.231    1926.014      5646.949     11705.940    1966.735
     5759.764     11761.369    1925.759      5784.791     11784.653    1966.493
      238.383      8395.200    1738.516       238.640      8394.751    1772.134
      378.340      8476.301    1734.999       379.397      8475.887    1767.053
      518.148      8557.337    1735.862       520.255      8556.954    1766.492
      657.886      8638.339    1738.271       661.259      8638.022    1767.668
      796.971      8719.356    1737.473       802.544      8719.091    1770.482
      935.820      8800.339    1737.696       942.892      8800.196    1768.220
     1074.704      8881.296    1739.564      1084.405      8881.271    1771.708
     1214.403      8962.244    1743.708      1229.248      8962.398    1784.402
     1353.323      9043.171    1744.488      1371.135      9043.554    1787.083
     1493.092      9124.101    1746.169      1515.695      9124.823    1794.020
     1633.592      9205.050    1748.548      1658.144      9206.097    1795.656
     1771.184      9285.843    1745.953      1796.136      9287.194    1789.152
     1907.916      9366.504    1742.812      1935.623      9368.359    1784.758
     2043.593      9446.961    1738.576      2070.517      9449.165    1774.248
     2183.412      9527.638    1740.396      2212.671      9530.562    1775.365
     2324.297      9608.366    1742.961      2353.720      9611.967    1775.093
     2463.854      9688.848    1743.058      2500.477      9694.358    1779.953
     2606.089      9769.687    1745.882      2653.836      9778.505    1791.204
     2746.367      9850.130    1747.767      2793.089      9860.671    1789.991
     2884.334      9929.816    1748.970      2932.233      9942.931    1790.880
     3025.106     10010.008    1752.273      3069.265     10024.577    1790.880
     3169.554     10091.518    1756.760      3215.483     10109.568    1798.092
     3313.085     10173.008    1758.773      3356.120     10192.820    1798.830
     3456.716     10254.906    1760.852      3496.051     10275.699    1798.747
     3593.299     10333.030    1757.436      3630.642     10355.219    1794.105
     3732.962     10412.727    1757.439      3775.217     10440.450    1798.201
     3873.207     10492.825    1760.608      3913.075     10521.292    1800.927
     4009.745     10570.159    1763.424      4045.132     10597.333    1803.415
     4146.246     10647.187    1770.427      4177.731     10672.932    1810.767
     4290.434     10730.656    1793.501      4323.213     10758.790    1839.148
     4437.123     10816.772    1825.849      4464.402     10840.950    1864.849
     4576.163     10896.321    1849.080      4606.951     10924.127    1892.661
     4710.456     10971.562    1862.099      4743.886     11002.007    1909.624
     4859.252     11060.070    1893.036      4887.536     11085.842    1933.270
     5007.434     11148.029    1920.390      5038.540     11176.294    1960.226
     5139.844     11221.685    1921.687      5175.532     11254.009    1962.488
     5272.564     11295.688    1918.973      5314.268     11333.367    1964.796
     5414.843     11378.347    1922.356      5452.618     11412.437    1965.951
     5555.433     11459.480    1922.616      5588.977     11489.765    1964.730
     5697.395     11541.846    1926.473      5729.375     11570.784    1968.916
     5838.118     11623.083    1926.240      5867.008     11649.337    1968.784
      317.838      8257.579    1735.105       318.092      8257.136    1764.931
      457.913      8338.630    1735.533       459.020      8338.189    1766.093
      597.942      8419.650    1738.041       600.234      8419.229    1768.428
      737.107      8500.734    1734.629       740.772      8500.391    1763.936
      876.212      8581.740    1735.636       882.443      8581.446    1769.683
     1015.175      8662.715    1737.604      1023.271      8662.552    1769.620
     1153.012      8743.677    1736.639      1164.453      8743.643    1770.778
     1291.583      8824.606    1738.470      1308.631      8824.762    1779.709
     1430.415      8905.518    1740.396      1452.430      8905.941    1785.908
     1571.698      8986.479    1745.792      1595.514      8987.157    1788.868
     1711.526      9067.404    1747.163      1738.479      9068.423    1791.488
     1851.499      9148.319    1748.649      1883.083      9149.833    1796.056
     1989.422      9229.100    1747.038      2022.207      9231.042    1791.181
     2123.999      9309.565    1741.196      2154.338      9311.764    1778.079
     2262.022      9390.130    1740.585      2296.790      9393.217    1779.195
     2402.744      9470.848    1742.407      2436.216      9474.506    1776.023
     2541.104      9551.192    1740.483      2582.660      9556.809    1777.929
     2682.447      9631.819    1741.289      2732.758      9640.229    1782.623
     2821.092      9711.845    1740.866      2878.924      9723.757    1785.120
     2958.212      9791.174    1740.102      3012.011      9804.776    1780.063
     3100.282      9871.462    1742.396      3148.429      9886.337    1779.074
     3242.686      9951.837    1743.388      3287.407      9968.567    1780.082
     3388.979     10034.017    1747.029      3431.121     10052.817    1784.007
     3533.479     10116.017    1750.115      3572.940     10136.585    1785.915
     3673.753     10196.094    1751.872      3711.420     10218.484    1785.971
     3812.677     10275.302    1753.659      3855.795     10303.896    1791.876
     3951.769     10354.537    1757.780      3996.414     10386.964    1799.016
     4093.204     10435.579    1767.678      4129.224     10463.863    1805.188
     4229.412     10512.474    1777.220      4259.006     10537.351    1812.557
     4382.431     10604.043    1813.981      4415.464     10633.201    1856.918
     4522.898     10685.077    1839.720      4549.867     10709.432    1876.979
     4650.782     10754.582    1848.828      4680.219     10781.437    1889.525
     4794.133     10838.122    1876.064      4826.957     10868.074    1920.411
     4948.452     10931.633    1913.212      4981.290     10961.460    1955.726
     5085.491     11009.410    1923.351      5120.699     11041.201    1963.794
     5211.876     11077.688    1917.596      5250.170     11112.056    1956.941
     5348.294     11155.094    1918.299      5392.825     11194.839    1962.509
     5495.247     11241.910    1925.711      5536.584     11278.645    1969.150
     5634.149     11321.557    1924.113      5675.088     11357.843    1971.140
     5776.404     11404.172    1927.960      5814.368     11437.807    1973.799
     5917.182     11485.467    1927.704      5951.507     11515.940    1973.736
      397.250      8120.034    1726.852       397.500      8119.597    1753.532
      537.365      8201.003    1732.111       538.525      8200.542    1761.470
      677.502      8282.001    1736.145       680.022      8281.542    1767.119
      817.215      8363.045    1737.334       821.306      8362.665    1767.982
      956.006      8444.097    1736.310       962.495      8443.792    1769.571
     1094.100      8525.104    1735.565      1102.628      8524.928    1766.777
     1232.058      8606.062    1736.016      1244.080      8606.013    1768.323
     1370.548      8686.995    1737.946      1389.511      8687.134    1777.995
     1509.821      8767.924    1741.060      1534.202      8768.322    1783.842
     1647.323      8848.800    1740.579      1675.215      8849.480    1782.967
     1786.616      8929.687    1741.984      1815.085      8930.612    1781.484
     1928.232      9010.645    1745.879      1965.063      9012.164    1793.151
     2069.490      9091.597    1748.590      2104.816      9093.403    1790.258
     2205.696      9172.238    1744.964      2241.840      9174.509    1784.281
     2343.393      9252.861    1743.442      2384.951      9256.074    1784.869
     2483.390      9333.575    1743.239      2527.341      9337.777    1782.487
     2618.122      9413.589    1737.203      2670.661      9419.843    1778.560
     2761.294      9494.451    1738.016      2821.092      9503.323    1779.511
     2894.574      9573.557    1733.059      2960.082      9585.624    1774.492
     3029.756      9652.288    1730.058      3092.888      9666.765    1769.013
     3174.491      9732.870    1732.067      3223.271      9746.785    1763.669
     3317.295      9812.963    1731.527      3363.538      9829.260    1765.133
     3459.319      9892.746    1730.535      3503.674      9911.818    1766.096
     3606.231      9975.084    1735.501      3647.702      9996.397    1769.950
     3749.890     10056.528    1741.864      3793.707     10082.729    1777.802
     3891.068     10136.887    1748.079      3942.184     10171.519    1789.427
     4030.806     10216.414    1754.894      4079.233     10252.753    1795.620
     4176.110     10300.554    1770.168      4214.600     10332.070    1807.191
     4315.092     10379.920    1785.768      4346.060     10407.220    1820.814
     4453.683     10459.028    1807.224      4501.122     10503.037    1864.886
     4602.206     10547.739    1843.310      4631.736     10575.561    1882.833
     4732.533     10619.266    1857.223      4760.993     10645.998    1895.482
     4885.094     10711.464    1897.638      4915.916     10739.958    1936.742
     5032.115     10798.221    1923.273      5068.456     10831.298    1965.307
     5156.296     10864.314    1918.157      5195.893     10899.938    1958.455
     5284.546     10934.366    1914.924      5330.081     10974.942    1956.816
     5423.275     11013.895    1917.011      5470.923     11055.991    1960.221
     5567.878     11098.621    1920.899      5613.160     11138.320    1965.138
     5711.656     11182.586    1923.930      5753.906     11219.401    1969.335
     5854.917     11266.069    1928.536      5894.466     11300.406    1972.781
     5995.864     11347.522    1928.295      6031.546     11378.483    1972.662
      476.664      7982.487    1719.561       476.904      7982.068    1743.203
      616.669      8063.433    1725.231       617.842      8062.972    1752.811
      756.523      8144.450    1727.667       759.182      8143.973    1758.442
      896.228      8225.458    1731.255       900.914      8225.027    1764.614
     1035.862      8306.452    1736.478      1043.602      8306.091    1773.968
     1174.468      8387.464    1737.999      1185.101      8387.238    1773.917
     1312.196      8468.447    1737.666      1326.430      8468.368    1772.120
     1449.929      8549.395    1737.882      1468.759      8549.488    1772.615
     1588.479      8630.326    1739.827      1610.534      8630.612    1772.754
     1725.846      8711.219    1739.891      1756.084      8711.818    1778.634
     1862.670      8792.055    1738.612      1898.821      8793.018    1781.152
     2001.513      8872.898    1739.214      2043.664      8874.336    1785.808
     2146.888      8953.976    1746.334      2188.002      8955.732    1788.842
     2287.213      9034.863    1747.162      2330.919      9037.181    1789.092
     2428.397      9115.792    1747.753      2473.681      9118.764    1787.471
     2568.672      9196.653    1745.523      2618.544      9200.723    1784.603
     2699.037      9276.474    1734.702      2755.157      9282.228    1773.090
     2837.809      9356.815    1731.106      2905.641      9365.583    1770.478
     2970.754      9436.005    1725.867      3046.420      9448.209    1764.793
     3102.833      9514.156    1720.699      3171.717      9528.196    1755.949
     3247.931      9594.385    1721.382      3303.674      9608.837    1751.788
     3392.620      9674.596    1720.606      3442.438      9690.931    1751.680
     3534.030      9753.631    1718.414      3581.976      9773.332    1752.339
     3675.870      9832.677    1720.092      3722.610      9856.290    1754.724
     3821.854      9914.357    1729.161      3873.669      9945.620    1767.548
     3967.872      9997.210    1740.482      4013.717     10029.229    1774.643
     4107.687     10076.378    1748.797      4159.127     10116.862    1788.658
     4252.215     10159.755    1763.856      4301.984     10203.139    1808.849
     4400.581     10247.734    1790.281      4435.066     10280.352    1828.583
     4527.831     10315.979    1800.031      4590.833     10378.696    1876.496
     4688.216     10417.380    1851.702      4719.605     10449.017    1892.455
     4827.671     10497.356    1878.814      4857.196     10526.542    1917.547
     4977.985     10587.250    1915.853      5009.681     10617.368    1954.085
     5107.541     10657.421    1920.755      5145.938     10692.690    1961.271
     5229.368     10721.309    1914.876      5274.539     10761.914    1956.172
     5362.285     10795.609    1916.174      5410.289     10838.132    1956.378
     5504.396     10878.136    1920.476      5551.811     10919.647    1960.780
     5644.882     10959.258    1920.209      5688.699     10997.201    1961.208
     5787.745     11042.438    1921.857      5828.730     11077.586    1964.328
     5932.805     11127.451    1928.089      5971.766     11160.628    1969.460
     6074.001     11209.135    1927.784      6109.145     11238.948    1969.294
      556.131      7844.845    1717.815       556.398      7844.378    1743.186
      695.903      7925.886    1717.555       696.916      7925.498    1740.122
      835.559      8006.892    1720.069       838.299      8006.412    1750.260
      975.286      8087.865    1725.591       980.071      8087.431    1757.988
     1114.659      8168.858    1731.042      1123.453      8168.446    1771.043
     1254.511      8249.831    1738.193      1267.847      8249.533    1779.607
     1392.632      8330.830    1738.906      1409.336      8330.704    1775.339
     1530.287      8411.803    1738.830      1552.261      8411.846    1774.536
     1667.606      8492.749    1738.810      1690.196      8492.947    1768.011
     1802.957      8573.642    1736.770      1831.122      8574.047    1767.950
     1939.466      8654.499    1735.599      1979.237      8655.292    1776.352
     2075.869      8735.292    1733.851      2122.907      8736.524    1779.781
     2217.319      8816.171    1736.888      2268.235      8817.883    1783.762
     2360.913      8897.128    1740.609      2416.505      8899.498    1787.729
     2508.517      8978.340    1744.891      2563.078      8981.262    1786.854
     2651.999      9059.444    1742.608      2706.303      9063.093    1780.069
     2785.005      9139.757    1731.707      2847.599      9145.092    1769.285
     2919.498      9219.868    1724.144      2995.299      9228.181    1761.536
     3049.904      9299.006    1717.593      3138.542      9311.329    1755.730
     3187.874      9378.488    1714.891      3260.011      9391.346    1747.003
     3330.891      9458.483    1714.826      3396.191      9473.588    1745.448
     3471.123      9537.488    1712.094      3531.187      9555.486    1744.013
     3610.330      9615.463    1708.928      3665.822      9636.902    1742.958
     3746.661      9691.200    1707.997      3801.894      9718.271    1744.117
     3891.375      9770.695    1715.992      3951.825      9807.247    1756.717
     4036.146      9851.182    1726.139      4082.732      9884.778    1758.696
     4175.164      9928.074    1733.934      4233.709      9976.881    1777.120
     4325.344     10015.474    1752.130      4374.756     10062.118    1795.612
     4465.455     10095.062    1767.497      4507.537     10138.716    1814.608
     4598.076     10167.306    1781.636      4681.252     10259.023    1887.449
     4720.827     10229.508    1786.059      4821.635     10341.514    1915.440
     4926.794     10382.166    1899.254      4962.629     10420.236    1945.900
     5066.290     10459.824    1922.739      5097.004     10490.269    1959.102
     5183.581     10517.230    1915.657      5224.242     10555.261    1956.369
     5306.416     10581.870    1912.939      5357.660     10628.046    1956.421
     5440.359     10657.170    1915.797      5492.612     10703.181    1956.882
     5580.832     10738.304    1918.761      5625.962     10777.414    1955.775
     5722.047     10820.097    1919.003      5767.927     10859.300    1961.162
     5868.350     10906.193    1923.894      5909.269     10940.710    1965.814
     6013.947     10991.599    1930.548      6051.960     11023.332    1969.748
     6155.222     11073.348    1930.221      6189.502     11101.770    1969.634
      635.587      7707.224    1715.160       635.886      7706.701    1743.795
      775.248      7788.290    1713.377       776.460      7787.842    1739.431
      914.819      7869.291    1715.947       917.686      7868.803    1746.062
     1053.894      7950.311    1717.799      1059.121      7949.847    1751.026
     1193.038      8031.285    1724.009      1202.734      8030.829    1764.765
     1331.338      8112.277    1728.409      1345.529      8111.937    1768.717
     1470.593      8193.241    1734.083      1488.431      8193.055    1769.210
     1611.469      8274.213    1739.843      1636.721      8274.162    1776.671
     1750.277      8355.201    1741.080      1777.060      8355.296    1772.043
     1881.295      8436.123    1734.305      1908.402      8436.333    1761.262
     2017.250      8517.023    1732.707      2056.395      8517.489    1769.044
     2153.385      8597.861    1730.737      2198.599      8598.628    1771.059
     2290.565      8678.638    1729.880      2344.765      8679.906    1775.176
     2435.881      8759.580    1734.046      2502.704      8761.676    1784.598
     2587.591      8840.840    1738.607      2651.990      8843.484    1782.508
     2728.479      8921.770    1731.868      2792.345      8925.128    1770.983
     2868.114      9002.632    1722.793      2933.836      9007.013    1757.665
     3001.921      9082.959    1713.504      3082.504      9089.894    1748.868
     3132.677      9162.437    1706.071      3227.277      9173.378    1746.342
     3275.313      9242.873    1706.687      3359.412      9255.759    1742.145
     3413.936      9322.423    1706.463      3489.168      9337.640    1738.590
     3549.485      9400.508    1703.716      3622.458      9420.026    1737.902
     3694.085      9480.356    1705.424      3749.332      9499.884    1735.001
     3827.452      9555.221    1704.099      3894.315      9585.968    1743.050
     3971.408      9633.797    1711.043      4036.373      9672.158    1751.478
     4112.805      9710.982    1717.718      4163.850      9748.652    1752.057
     4252.652      9787.252    1725.051      4312.495      9840.164    1768.808
     4400.952      9872.441    1739.777      4450.684      9923.560    1784.042
     4539.053      9948.700    1749.263      4572.653      9987.790    1788.480
     4671.902     10017.579    1757.298      4703.776     10059.971    1803.208
     4796.052     10080.057    1765.038      4900.800     10218.535    1908.580
     5004.862     10247.689    1887.776      5045.935     10295.959    1942.851
     5142.106     10320.586    1910.076      5180.956     10360.978    1956.387
     5263.997     10381.126    1910.556      5310.287     10425.311    1955.938
     5391.233     10449.426    1913.912      5440.288     10493.744    1953.972
     5522.132     10521.995    1915.771      5569.922     10563.733    1952.220
     5656.209     10597.665    1914.704      5705.888     10640.141    1954.927
     5807.829     10688.273    1924.785      5849.534     10723.326    1962.837
     5952.517     10772.881    1929.155      5989.856     10803.783    1967.105
     6097.728     10857.849    1934.923      6133.362     10886.956    1971.052