NOECHO

-- =============================================================================
-- 
-- Exported from Reek_base_sim
-- 
-- Exported by user asny from RMS11 at 2020-02-19 16:29:27
-- 
-- =============================================================================

MAPUNITS
'METRES  ' /

MAPAXES
456514.905 5939173.455
456514.905 5927115.548
467218.319 5927115.548 /

GRIDUNIT
'METRES  ' '        ' /

SPECGRID
  40  64  14   1  F  /

GDORIENT
INC INC INC DOWN RIGHT /

COORD
        0.000      8808.092    1736.671         0.122      8807.812    1777.252
      140.017      8889.130    1737.075       140.816      8888.860    1776.907
      279.935      8970.162    1738.570       281.641      8969.892    1778.471
      419.767      9051.172    1741.377       422.695      9050.931    1780.296
      559.355      9132.174    1741.901       563.642      9132.005    1777.352
      698.736      9213.157    1741.717       704.940      9213.082    1777.662
      838.139      9294.118    1743.490       846.970      9294.181    1782.733
      977.427      9375.059    1744.927       988.758      9375.315    1784.963
     1116.186      9455.958    1743.113      1129.722      9456.452    1780.008
     1254.648      9536.801    1740.323      1271.117      9537.626    1777.915
     1392.979      9617.581    1737.784      1414.137      9618.942    1780.089
     1531.276      9698.292    1737.282      1554.047      9700.104    1776.438
     1669.527      9778.920    1738.527      1692.569      9781.142    1771.832
     1806.935      9859.354    1738.827      1832.741      9862.335    1770.596
     1944.697      9939.670    1739.795      1975.153      9943.878    1772.271
     2083.859     10020.021    1742.582      2117.885     10025.647    1774.653
     2221.499     10099.910    1744.579      2254.888     10106.521    1773.426
     2359.505     10179.583    1746.642      2393.490     10187.620    1775.655
     2499.913     10259.604    1750.983      2538.817     10270.524    1785.613
     2641.288     10339.810    1757.691      2683.339     10353.708    1796.359
     2781.650     10419.586    1763.383      2825.655     10436.551    1803.464
     2920.485     10498.563    1765.529      2966.429     10518.966    1805.125
     3059.046     10577.133    1765.091      3106.933     10601.278    1805.575
     3199.865     10656.724    1764.860      3244.036     10681.640    1802.518
     3341.305     10736.765    1764.420      3380.315     10761.051    1799.005
     3480.346     10815.333    1763.258      3517.787     10840.766    1798.682
     3619.406     10893.834    1764.561      3657.566     10921.827    1803.534
     3759.784     10973.347    1769.166      3799.320     11004.345    1813.607
     3901.490     11054.137    1777.367      3938.920     11085.149    1824.555
     4041.831     11134.068    1790.279      4081.543     11168.421    1843.428
     4187.021     11218.553    1816.598      4230.322     11257.217    1872.256
     4331.914     11303.181    1841.753      4376.650     11343.964    1895.835
     4468.005     11379.955    1852.852      4514.232     11422.596    1907.830
     4612.077     11464.189    1873.570      4655.621     11504.578    1925.097
     4762.336     11554.264    1902.846      4800.418     11589.676    1945.518
     4905.908     11638.164    1920.651      4942.211     11672.006    1959.491
     5042.966     11716.000    1925.693      5078.399     11749.135    1964.235
     5180.457     11794.220    1925.891      5211.026     11822.926    1962.257
     5321.196     11875.479    1927.758      5347.202     11900.022    1962.687
     5462.661     11957.425    1931.666      5485.531     11979.140    1965.963
     5603.506     12038.786    1931.447      5623.498     12057.907    1965.808
       79.447      8670.455    1736.691        79.608      8670.170    1777.271
      219.493      8751.494    1737.098       220.326      8751.225    1776.933
      359.438      8832.525    1738.607       361.179      8832.260    1778.487
      499.304      8913.535    1741.403       502.292      8913.301    1780.295
      638.929      8994.538    1741.939       643.297      8994.380    1777.394
      778.327      9075.523    1741.768       784.697      9075.461    1777.705
      917.804      9156.487    1743.538       926.962      9156.570    1782.764
     1057.228      9237.437    1744.945      1068.965      9237.713    1784.950
     1196.170      9318.350    1743.151      1209.591      9318.842    1780.012
     1334.807      9399.213    1740.357      1350.648      9399.999    1777.928
     1473.300      9480.023    1737.848      1493.256      9481.279    1780.086
     1611.904      9560.783    1737.377      1632.933      9562.409    1776.460
     1750.592      9641.488    1738.568      1771.355      9643.423    1771.851
     1888.806      9722.063    1738.904      1911.454      9724.586    1770.607
     2027.610      9802.601    1739.937      2054.032      9806.116    1772.270
     2167.816      9883.236    1742.730      2197.662      9887.990    1774.653
     2306.422      9963.493    1744.752      2336.585      9969.257    1773.438
     2445.336     10043.621    1746.905      2476.972     10050.858    1775.874
     2586.243     10124.081    1751.395      2622.843     10134.048    1785.938
     2727.358     10204.555    1758.116      2767.750     10217.546    1796.644
     2867.886     10284.773    1763.673      2910.939     10300.979    1803.631
     3007.230     10364.384    1765.647      3050.862     10383.371    1805.212
     3146.376     10443.694    1765.214      3190.065     10465.351    1805.638
     3287.576     10523.955    1764.958      3327.109     10545.943    1802.513
     3429.443     10604.720    1764.424      3464.476     10626.285    1799.061
     3568.703     10683.924    1763.326      3602.581     10706.734    1798.900
     3707.255     10762.536    1764.798      3742.100     10787.926    1803.947
     3846.402     10841.503    1769.589      3882.773     10869.882    1814.102
     3986.424     10921.213    1777.776      4020.745     10949.551    1824.958
     4125.693     11000.421    1791.016      4161.420     11031.246    1843.679
     4269.615     11083.895    1817.313      4307.334     11117.492    1871.687
     4412.389     11166.649    1841.880      4451.568     11202.271    1895.109
     4548.144     11243.139    1852.923      4588.906     11280.618    1907.368
     4691.849     11327.032    1873.652      4729.933     11362.206    1924.394
     4840.662     11415.725    1902.601      4874.292     11446.830    1944.601
     4983.727     11499.131    1920.472      5017.543     11530.451    1959.080
     5121.562     11577.701    1925.686      5155.709     11609.401    1964.226
     5259.997     11656.818    1925.907      5289.974     11684.741    1962.361
     5401.490     11738.780    1927.803      5427.224     11762.855    1962.873
     5543.102     11820.858    1931.691      5566.070     11842.466    1966.103
     5683.533     11901.829    1931.469      5704.006     11921.221    1965.945
      158.896      8532.845    1735.475       159.098      8532.493    1776.166
      298.909      8613.882    1735.710       299.852      8613.573    1775.119
      438.748      8694.916    1736.115       440.781      8694.614    1777.031
      578.616      8775.912    1739.939       582.168      8775.654    1780.609
      718.071      8856.911    1739.970       722.931      8856.758    1774.980
      857.287      8937.887    1739.945       864.116      8937.847    1773.983
      996.624      9018.843    1741.537      1006.875      9018.959    1779.864
     1136.446      9099.797    1744.263      1149.925      9100.129    1784.398
     1274.873      9180.696    1741.696      1289.442      9181.226    1777.886
     1413.659      9261.569    1739.804      1430.611      9262.379    1776.948
     1551.477      9342.347    1736.274      1573.539      9343.661    1780.207
     1689.408      9423.064    1734.758      1711.700      9424.675    1774.559
     1829.291      9503.874    1737.843      1850.955      9505.746    1772.184
     1967.082      9584.434    1737.241      1989.795      9586.768    1769.577
     2105.590      9664.955    1737.571      2131.616      9668.142    1770.263
     2246.250      9745.655    1740.644      2277.400      9750.226    1774.309
     2384.179      9825.825    1741.146      2413.089      9830.929    1768.451
     2523.279      9905.996    1742.790      2554.250      9912.578    1770.250
     2663.543      9986.261    1746.069      2703.710      9996.489    1781.860
     2805.682     10066.968    1752.614      2848.540     10079.947    1790.701
     2948.154     10147.841    1758.775      2993.789     10164.143    1798.391
     3087.434     10227.504    1760.297      3129.130     10244.864    1797.135
     3225.748     10306.471    1759.110      3271.424     10328.312    1801.693
     3367.312     10386.875    1759.522      3405.189     10407.360    1796.416
     3508.809     10467.375    1759.257      3543.989     10488.583    1794.506
     3647.502     10546.174    1757.914      3682.150     10569.165    1794.323
     3786.107     10624.768    1759.869      3821.550     10650.354    1799.515
     3923.425     10702.270    1763.220      3960.238     10730.839    1808.001
     4064.258     10782.531    1774.018      4096.429     10809.022    1817.893
     4199.745     10858.436    1783.268      4236.883     10890.434    1837.984
     4347.855     10945.509    1816.690      4385.375     10978.875    1871.751
     4495.492     11032.667    1849.428      4531.976     11065.750    1900.419
     4624.772     11103.290    1852.290      4663.385     11138.636    1905.423
     4767.131     11185.937    1871.680      4803.488     11219.288    1921.165
     4922.849     11280.896    1909.411      4954.022     11309.455    1948.268
     5065.976     11364.316    1925.970      5096.094     11391.875    1959.396
     5198.456     11438.004    1924.544      5232.795     11469.430    1961.412
     5334.726     11515.160    1921.776      5366.817     11544.567    1958.390
     5476.965     11597.778    1923.770      5502.711     11621.436    1956.260
     5619.147     11680.347    1927.898      5643.215     11702.553    1960.604
     5759.737     11761.445    1927.676      5781.364     11781.513    1960.377
      238.346      8395.235    1733.916       238.586      8394.814    1774.854
      378.293      8476.284    1732.898       379.359      8475.920    1772.473
      518.039      8557.314    1733.420       520.179      8556.993    1771.439
      657.882      8638.294    1737.910       661.706      8638.023    1776.493
      797.090      8719.290    1737.354       802.880      8719.123    1774.175
      936.194      8800.255    1738.067       943.755      8800.226    1771.175
     1075.117      8881.200    1738.851      1085.842      8881.333    1773.741
     1214.988      8962.148    1742.096      1228.933      8962.491    1778.216
     1354.192      9043.071    1742.357      1370.455      9043.643    1777.935
     1493.595      9123.983    1742.275      1513.792      9124.896    1781.622
     1634.156      9204.938    1744.104      1656.928      9206.205    1785.023
     1771.773      9285.698    1741.736      1795.181      9287.261    1780.242
     1908.644      9366.326    1739.599      1932.976      9368.253    1776.168
     2046.009      9446.889    1738.276      2072.165      9449.340    1774.571
     2186.193      9527.634    1740.370      2213.472      9530.674    1773.972
     2327.291      9608.447    1743.053      2355.496      9612.218    1772.406
     2466.698      9688.976    1743.438      2498.476      9694.104    1771.845
     2604.532      9769.073    1742.758      2645.176      9777.008    1775.948
     2746.069      9849.763    1745.990      2788.465      9859.747    1779.621
     2884.948      9929.701    1748.080      2933.903      9943.525    1786.425
     3025.362     10009.857    1751.000      3071.250     10025.287    1787.003
     3165.647     10089.812    1752.657      3210.507     10107.581    1789.944
     3311.110     10172.001    1757.954      3360.422     10194.694    1802.444
     3454.433     10253.647    1761.115      3494.934     10274.969    1799.790
     3593.588     10333.188    1760.138      3631.699     10355.790    1797.188
     3732.003     10412.095    1759.987      3768.156     10435.907    1796.435
     3868.854     10489.689    1761.428      3909.852     10519.261    1805.294
     4004.623     10566.131    1764.526      4041.326     10594.728    1807.311
     4142.677     10644.155    1773.898      4174.651     10670.693    1815.522
     4287.164     10727.839    1797.902      4325.591     10761.229    1852.127
     4435.194     10815.178    1832.037      4471.083     10847.277    1883.421
     4573.895     10894.406    1852.745      4607.895     10925.315    1900.015
     4706.963     10968.509    1861.803      4741.026     10999.670    1908.382
     4858.502     11059.568    1894.078      4887.582     11086.142    1932.771
     5008.342     11149.053    1921.774      5037.470     11175.566    1955.982
     5141.865     11223.698    1925.254      5174.180     11252.994    1958.768
     5274.430     11297.537    1923.309      5310.375     11330.031    1959.147
     5415.630     11379.204    1925.422      5445.821     11406.461    1957.304
     5555.080     11459.287    1924.228      5583.500     11484.955    1957.143
     5697.163     11541.741    1927.865      5724.512     11566.494    1961.461
     5837.825     11622.903    1927.647      5862.529     11645.353    1961.284
      317.810      8257.599    1733.980       318.070      8257.143    1772.877
      457.812      8338.638    1734.606       459.018      8338.218    1774.539
      597.666      8419.661    1735.982       600.059      8419.299    1773.668
      736.876      8500.698    1733.249       741.135      8500.398    1771.236
      876.193      8581.670    1735.222       883.307      8581.471    1775.109
     1015.019      8662.626    1735.848      1024.763      8662.596    1773.146
     1154.348      8743.569    1738.641      1165.874      8743.713    1771.087
     1292.382      8824.477    1737.827      1307.831      8824.845    1772.370
     1431.571      8905.387    1739.299      1453.650      8906.124    1780.984
     1571.691      8986.321    1741.431      1594.770      8987.296    1780.251
     1712.943      9067.308    1744.702      1739.079      9068.647    1785.511
     1852.370      9148.197    1745.641      1879.719      9149.861    1785.558
     1989.834      9228.917    1744.614      2020.453      9231.114    1786.583
     2125.539      9309.406    1741.256      2158.631      9312.202    1784.083
     2263.853      9389.992    1740.760      2298.607      9393.477    1780.665
     2403.757      9470.649    1741.342      2438.519      9474.828    1774.726
     2541.911      9550.971    1739.704      2580.968      9556.650    1771.527
     2682.984      9631.602    1740.479      2728.980      9639.725    1773.917
     2823.684      9712.102    1741.581      2871.280      9722.307    1774.237
     2959.120      9791.140    1739.795      3010.045      9804.357    1774.053
     3098.795      9870.814    1740.589      3147.147      9885.932    1773.949
     3240.634      9950.989    1742.092      3284.547      9967.388    1775.311
     3387.620     10033.412    1747.908      3432.584     10053.221    1785.824
     3532.538     10115.567    1752.895      3577.131     10138.400    1792.625
     3674.672     10196.705    1756.323      3718.734     10222.504    1796.489
     3814.889     10276.854    1759.939      3861.470     10307.524    1803.943
     3949.984     10353.327    1761.475      3998.951     10388.958    1810.442
     4086.606     10430.440    1767.408      4129.687     10464.550    1814.440
     4223.614     10507.612    1778.117      4258.652     10537.360    1820.532
     4375.597     10598.146    1813.682      4420.297     10637.961    1871.555
     4521.490     10684.010    1845.632      4559.070     10718.250    1897.048
     4647.789     10751.958    1850.748      4685.473     10786.618    1901.989
     4791.026     10835.427    1875.690      4827.520     10868.965    1923.604
     4948.840     10932.230    1915.179      4979.246     10960.009    1952.621
     5086.491     11010.536    1925.439      5117.254     11038.437    1958.381
     5212.688     11078.583    1920.648      5245.618     11108.242    1951.963
     5351.037     11157.693    1923.453      5389.650     11192.261    1959.198
     5495.382     11242.172    1927.910      5529.870     11272.906    1962.038
     5634.458     11321.947    1926.380      5669.135     11352.766    1963.893
     5776.371     11404.237    1929.475      5808.794     11433.039    1966.136
     5917.085     11485.451    1929.264      5946.505     11511.638    1966.062
      397.233      8120.034    1727.969       397.526      8119.522    1766.735
      537.267      8201.010    1733.297       538.702      8200.506    1775.745
      677.203      8282.019    1735.812       679.932      8281.606    1774.120
      816.635      8363.046    1734.679       821.390      8362.715    1772.453
      955.646      8444.039    1734.423       963.955      8443.813    1775.615
     1094.496      8525.000    1735.629      1105.748      8524.965    1773.182
     1232.870      8605.936    1736.183      1246.404      8606.098    1769.015
     1371.032      8686.844    1736.705      1390.706      8687.289    1774.504
     1509.399      8767.732    1737.538      1535.619      8768.549    1779.938
     1647.713      8848.593    1737.759      1677.976      8849.771    1781.193
     1787.635      8929.498    1739.746      1818.566      8930.940    1781.073
     1928.589      9010.443    1743.255      1962.139      9012.286    1785.868
     2069.090      9091.358    1746.466      2101.462      9093.440    1785.798
     2205.112      9171.925    1743.925      2241.546      9174.671    1785.895
     2342.807      9252.507    1742.272      2381.354      9255.939    1781.530
     2483.126      9333.243    1741.772      2526.088      9337.816    1778.618
     2617.667      9413.183    1736.061      2667.192      9419.560    1772.094
     2759.812      9493.927    1736.243      2817.728      9503.007    1773.083
     2894.215      9573.192    1732.319      2951.071      9584.065    1765.763
     3026.100      9651.188    1727.618      3083.572      9664.647    1760.714
     3170.564      9731.635    1729.712      3226.776      9747.739    1763.359
     3315.475      9812.366    1731.550      3368.820      9830.933    1767.228
     3460.413      9893.404    1734.454      3509.635      9914.006    1771.866
     3603.268      9973.863    1737.800      3652.573      9998.337    1777.764
     3749.278     10056.424    1745.829      3804.295     10088.287    1792.281
     3890.169     10136.534    1751.860      3945.038     10172.892    1800.134
     4028.822     10215.168    1758.310      4083.726     10255.938    1809.140
     4169.219     10295.115    1769.551      4221.452     10337.823    1822.812
     4310.440     10376.023    1787.261      4355.984     10416.282    1839.610
     4448.506     10454.439    1807.959      4508.338     10510.145    1880.181
     4598.197     10544.191    1844.126      4635.729     10579.801    1893.803
     4730.370     10617.377    1858.905      4765.729     10650.891    1905.870
     4883.941     10710.653    1898.805      4915.791     10740.375    1938.389
     5031.823     10798.266    1924.371      5066.068     10829.707    1962.564
     5156.484     10864.669    1920.346      5194.610     10899.229    1957.192
     5286.947     10936.628    1919.837      5324.833     10970.609    1952.983
     5427.658     11017.886    1923.573      5465.588     11051.594    1956.865
     5568.975     11099.690    1924.306      5602.719     11129.435    1956.623
     5710.967     11182.078    1925.340      5746.211     11212.950    1962.255
     5854.752     11266.006    1930.111      5887.743     11294.799    1965.487
     5995.702     11347.436    1929.870      6025.631     11373.540    1965.347
      476.651      7982.479    1721.674       476.963      7981.934    1757.887
      616.579      8063.430    1727.651       617.942      8062.955    1763.550
      756.463      8144.418    1731.175       759.273      8143.998    1766.546
      895.817      8225.436    1730.646       900.655      8225.103    1765.134
     1035.237      8306.408    1733.426      1043.094      8306.197    1768.008
     1173.872      8387.376    1734.265      1185.716      8387.336    1768.731
     1311.425      8468.307    1733.648      1327.203      8468.483    1766.660
     1449.403      8549.211    1734.742      1473.467      8549.718    1774.594
     1588.416      8630.124    1737.309      1615.182      8630.892    1774.691
     1725.659      8710.963    1736.961      1759.531      8712.161    1778.911
     1863.691      8791.793    1737.236      1898.506      8793.252    1777.494
     2003.311      8872.659    1739.391      2039.199      8874.417    1779.251
     2146.086      8953.678    1744.954      2185.559      8955.925    1787.075
     2286.549      9034.568    1746.869      2333.102      9037.657    1793.309
     2426.813      9115.427    1746.274      2470.657      9118.846    1784.821
     2568.761      9196.422    1744.745      2616.095      9200.808    1780.534
     2700.667      9276.333    1735.364      2754.431      9282.353    1770.160
     2836.632      9356.362    1730.241      2897.708      9364.719    1763.985
     2967.401      9435.173    1724.181      3035.329      9446.527    1758.262
     3102.088      9513.808    1720.492      3169.126      9527.693    1754.031
     3246.387      9593.972    1721.363      3309.584      9610.290    1754.337
     3389.055      9673.642    1720.645      3452.171      9693.841    1757.346
     3533.715      9753.969    1721.964      3591.416      9776.666    1760.538
     3672.817      9831.938    1722.756      3731.864      9860.155    1765.907
     3821.311      9914.744    1733.245      3882.964      9949.991    1781.621
     3962.666      9994.251    1740.848      4022.688     10034.450    1790.297
     4101.204     10071.878    1747.982      4161.331     10117.987    1799.487
     4244.383     10153.344    1761.694      4304.651     10205.249    1819.621
     4393.589     10241.415    1787.908      4437.184     10282.525    1837.180
     4522.051     10310.507    1797.906      4595.600     10383.760    1886.987
     4685.074     10414.493    1851.762      4721.718     10451.662    1899.174
     4826.434     10496.421    1880.004      4860.542     10530.490    1924.363
     4977.391     10587.114    1916.624      5008.424     10616.958    1953.514
     5107.189     10657.412    1921.968      5141.832     10689.606    1957.608
     5228.900     10721.010    1916.846      5269.035     10757.477    1952.283
     5362.988     10796.297    1919.655      5404.663     10833.576    1953.825
     5503.225     10877.174    1922.160      5541.400     10910.895    1954.813
     5644.073     10958.612    1921.722      5675.509     10986.061    1951.866
     5786.847     11041.717    1923.170      5819.804     11070.208    1957.918
     5932.635     11127.365    1930.004      5963.985     11154.271    1962.945
     6073.954     11209.125    1929.683      6102.388     11233.438    1962.725
      556.113      7844.846    1720.768       556.476      7844.211    1758.595
      695.884      7925.850    1722.375       697.216      7925.394    1753.755
      835.409      8006.862    1723.158       838.130      8006.462    1754.064
      974.795      8087.838    1725.336       979.543      8087.518    1755.933
     1114.313      8168.792    1729.867      1121.620      8168.596    1758.614
     1253.964      8249.751    1734.225      1264.600      8249.711    1761.421
     1391.917      8330.703    1734.434      1406.767      8330.852    1761.511
     1529.794      8411.626    1735.359      1554.381      8412.098    1771.006
     1666.737      8492.505    1735.443      1694.862      8493.233    1770.257
     1803.333      8573.342    1735.212      1834.506      8574.322    1769.643
     1940.154      8654.146    1734.830      1978.200      8655.547    1774.180
     2078.239      8734.953    1735.714      2117.986      8736.647    1775.322
     2218.066      8815.797    1737.986      2264.507      8818.086    1782.144
     2361.262      8896.801    1741.580      2414.315      8899.833    1787.793
     2508.085      8978.073    1744.590      2561.650      8981.647    1785.418
     2652.039      9059.252    1741.969      2702.995      9063.268    1775.910
     2781.488      9139.166    1729.535      2844.098      9145.099    1765.572
     2916.623      9219.273    1723.074      2995.216      9228.449    1760.966
     3044.700      9298.018    1716.063      3131.917      9310.582    1753.999
     3181.687      9377.261    1712.966      3257.601      9390.941    1747.441
     3326.734      9457.600    1714.375      3397.681      9473.812    1747.462
     3464.472      9535.891    1711.408      3543.144      9558.624    1751.345
     3607.064      9615.025    1711.094      3678.749      9641.068    1753.077
     3744.401      9691.563    1711.054      3813.657      9722.918    1756.444
     3890.611      9771.819    1719.308      3961.518      9811.405    1770.994
     4032.371      9850.005    1727.270      4097.522      9894.014    1777.936
     4170.444      9925.467    1733.952      4238.116      9979.544    1788.368
     4316.462     10007.823    1748.311      4376.825     10063.675    1804.321
     4457.104     10086.741    1762.037      4505.731     10137.010    1817.451
     4591.379     10159.947    1776.010      4683.344     10261.955    1893.033
     4716.454     10224.215    1782.462      4817.655     10338.033    1913.307
     4929.317     10385.475    1904.332      4962.565     10421.340    1947.573
     5065.440     10459.583    1922.759      5095.887     10490.244    1958.519
     5184.136     10518.048    1917.816      5221.903     10553.905    1955.039
     5304.870     10580.530    1914.012      5347.156     10619.170    1949.142
     5439.129     10656.080    1917.697      5480.611     10693.079    1950.407
     5580.458     10737.986    1921.176      5618.507     10771.352    1953.570
     5723.305     10821.193    1922.367      5755.110     10848.674    1953.473
     5868.718     10906.551    1926.569      5898.044     10931.554    1958.464
     6014.149     10991.830    1933.138      6043.549     11016.629    1964.207
     6155.619     11073.711    1932.808      6182.252     11096.026    1963.979
      635.557      7707.246    1717.984       635.949      7706.561    1756.028
      775.246      7788.247    1719.028       776.669      7787.772    1749.578
      914.696      7869.252    1719.961       917.378      7868.869    1747.698
     1053.736      7950.242    1720.807      1057.884      7949.969    1745.083
     1192.479      8031.200    1723.467      1200.085      8030.999    1750.494
     1331.399      8112.139    1727.567      1341.149      8112.097    1749.844
     1470.632      8193.083    1731.416      1484.294      8193.201    1753.573
     1609.162      8274.025    1733.685      1630.453      8274.383    1761.458
     1747.668      8354.961    1736.036      1775.381      8355.583    1767.603
     1881.253      8435.757    1733.109      1911.693      8436.573    1764.371
     2017.355      8516.573    1732.536      2057.689      8517.820    1771.320
     2153.999      8597.358    1732.328      2198.456      8598.936    1773.503
     2293.486      8678.197    1733.882      2342.692      8680.209    1776.741
     2436.360      8759.157    1735.596      2490.984      8761.748    1778.291
     2583.558      8840.367    1736.214      2643.080      8843.661    1776.573
     2727.286      8921.466    1730.709      2790.339      8925.552    1767.942
     2867.911      9002.404    1722.678      2933.678      9007.429    1756.389
     2999.438      9082.497    1713.264      3081.419      9090.123    1748.955
     3127.359      9161.614    1705.161      3228.126      9173.702    1749.253
     3271.204      9242.192    1706.743      3364.025      9256.518    1747.376
     3411.009      9321.964    1707.424      3491.310      9337.908    1742.210
     3540.895      9398.748    1702.765      3621.822      9419.427    1739.722
     3684.696      9478.088    1704.506      3760.462      9502.915    1743.799
     3824.835      9555.789    1706.928      3903.026      9588.367    1752.760
     3968.866      9634.468    1713.272      4041.634      9673.214    1761.727
     4106.042      9708.542    1716.886      4171.875      9752.997    1764.913
     4247.148      9784.442    1724.853      4315.035      9841.062    1777.401
     4396.611      9868.885    1739.821      4455.017      9927.447    1793.697
     4536.019      9945.298    1748.868      4577.343      9993.464    1797.886
     4670.018     10014.184    1756.094      4706.339     10063.575    1808.783
     4795.405     10077.425    1764.589      4898.871     10218.192    1908.682
     5010.752     10255.510    1897.283      5042.037     10293.173    1939.523
     5140.991     10320.026    1909.738      5176.386     10357.588    1951.776
     5264.258     10381.681    1912.131      5305.339     10421.623    1951.952
     5390.124     10448.529    1915.114      5433.672     10488.541    1950.291
     5525.501     10524.993    1921.177      5567.317     10562.081    1953.644
     5659.843     10600.751    1920.438      5702.670     10637.897    1957.106
     5809.305     10689.588    1929.062      5841.835     10717.301    1961.361
     5954.965     10775.012    1934.596      5983.225     10798.706    1966.051
     6098.648     10858.706    1938.812      6127.478     10882.557    1969.681