NOECHO

-- =============================================================================
-- 
-- Exported from Reek_base_sim
-- 
-- Exported by user asny from RMS11 at 2020-02-19 17:17:39
-- 
-- =============================================================================

MAPUNITS
'METRES  ' /

MAPAXES
456514.873 5939174.021
456514.873 5927115.548
467218.401 5927115.548 /

GRIDUNIT
'METRES  ' '        ' /

SPECGRID
  40  64  14   1  F  /

GDORIENT
INC INC INC DOWN RIGHT /

COORD
        0.000      8808.148    1734.188         0.178      8807.770    1765.030
      139.985      8889.190    1735.016       140.836      8888.836    1764.310
      279.858      8970.220    1736.942       281.643      8969.861    1767.139
      419.642      9051.226    1740.315       422.975      9050.862    1774.495
      559.305      9132.215    1743.664       564.490      9131.916    1779.448
      698.655      9213.195    1745.441       705.867      9213.013    1780.359
      838.072      9294.153    1747.962       847.724      9294.124    1782.592
      977.552      9375.096    1750.070       989.766      9375.268    1784.242
     1116.476      9456.004    1748.654      1131.032      9456.433    1781.487
     1254.770      9536.850    1744.891      1273.201      9537.662    1780.822
     1392.711      9617.616    1740.800      1415.915      9618.986    1781.668
     1530.327      9698.280    1738.301      1557.278      9700.304    1780.541
     1668.223      9778.866    1738.035      1698.440      9781.671    1779.331
     1806.038      9859.327    1737.900      1838.083      9862.952    1776.648
     1943.894      9939.629    1738.021      1976.641      9944.129    1773.881
     2081.902     10019.748    1738.734      2115.531     10025.358    1773.082
     2220.571     10099.736    1740.560      2258.216     10107.354    1777.792
     2360.711     10179.824    1744.822      2401.924     10189.893    1785.205
     2500.989     10259.799    1750.673      2544.124     10272.410    1792.634
     2642.002     10339.878    1757.799      2684.856     10354.705    1799.207
     2783.004     10419.889    1763.911      2827.290     10437.787    1806.063
     2922.338     10499.092    1766.225      2968.649     10520.620    1807.394
     3061.399     10577.950    1765.859      3110.247     10603.645    1807.426
     3202.123     10657.596    1765.203      3249.641     10685.439    1805.885
     3342.110     10736.813    1763.136      3385.389     10764.682    1801.856
     3481.329     10815.481    1761.157      3518.682     10841.622    1796.784
     3619.995     10893.677    1760.996      3654.149     10919.397    1796.024
     3759.274     10972.316    1764.082      3792.769     10999.189    1801.539
     3900.456     11052.655    1771.779      3933.207     11080.349    1812.191
     4041.140     11132.855    1784.877      4076.553     11164.060    1830.669
     4185.900     11217.023    1810.550      4225.979     11253.411    1859.623
     4331.889     11302.733    1837.166      4376.495     11344.012    1888.140
     4467.543     11379.077    1848.716      4516.198     11424.559    1903.784
     4611.087     11462.895    1869.304      4658.826     11507.698    1924.329
     4759.262     11551.142    1896.928      4801.580     11590.902    1945.488
     4902.484     11634.762    1915.134      4942.616     11672.512    1959.720
     5040.761     11713.735    1921.038      5079.840     11750.576    1964.531
     5179.783     11793.398    1922.614      5213.278     11825.079    1963.679
     5320.456     11874.614    1924.335      5348.723     11901.467    1964.138
     5461.716     11956.386    1927.901      5486.234     11979.805    1967.037
     5602.732     12037.921    1927.705      5624.099     12058.472    1966.902
       79.450      8670.506    1734.215        79.659      8670.139    1765.041
      219.470      8751.547    1735.045       220.337      8751.202    1764.347
      359.392      8832.575    1736.980       361.199      8832.225    1767.184
      499.270      8913.576    1740.364       502.630      8913.226    1774.520
      639.081      8994.565    1743.708       644.294      8994.286    1779.462
      778.632      9075.549    1745.497       785.840      9075.389    1780.380
      918.190      9156.519    1748.012       927.889      9156.510    1782.623
     1057.619      9237.470    1750.094      1070.063      9237.667    1784.237
     1196.660      9318.395    1748.687      1211.236      9318.835    1781.487
     1335.249      9399.269    1744.924      1353.313      9400.063    1780.824
     1473.370      9480.068    1740.860      1495.828      9481.373    1781.666
     1611.201      9560.780    1738.381      1637.051      9562.671    1780.533
     1749.585      9641.454    1738.091      1778.327      9644.037    1779.328
     1888.146      9722.058    1737.979      1918.324      9725.351    1776.628
     2026.881      9802.571    1738.142      2057.638      9806.640    1773.863
     2165.758      9882.967    1738.866      2197.607      9888.082    1773.118
     2305.383      9963.333    1740.814      2341.139      9970.311    1777.924
     2446.178     10043.822    1745.145      2485.287     10053.065    1785.381
     2586.662     10124.163    1751.099      2627.846     10135.853    1792.809
     2727.673     10204.586    1758.219      2769.252     10218.603    1799.434
     2868.998     10285.092    1764.204      2912.625     10302.339    1806.243
     3009.115     10365.058    1766.356      3053.832     10385.465    1807.473
     3148.909     10444.747    1765.964      3194.699     10468.474    1807.503
     3289.815     10524.965    1765.242      3333.403     10550.197    1805.887
     3429.945     10604.741    1763.074      3469.361     10629.873    1801.763
     3569.554     10684.141    1761.147      3603.626     10707.797    1796.791
     3708.105     10762.716    1761.144      3739.481     10786.195    1796.315
     3846.197     10840.833    1764.429      3877.065     10865.473    1801.994
     3985.787     10920.151    1772.278      4015.604     10945.263    1812.634
     4125.234     10999.475    1785.613      4156.764     11027.166    1830.943
     4268.814     11082.695    1811.343      4303.148     11113.771    1859.098
     4412.522     11166.353    1837.332      4450.772     11201.634    1887.134
     4547.828     11242.404    1848.802      4590.464     11282.105    1903.158
     4690.838     11325.721    1869.374      4733.187     11365.272    1923.542
     4837.791     11412.791    1896.742      4876.237     11448.697    1944.591
     4980.373     11495.793    1914.971      5018.838     11531.722    1959.406
     5119.155     11575.250    1921.015      5157.297     11610.924    1964.530
     5259.156     11655.840    1922.622      5291.811     11686.462    1963.815
     5400.558     11737.742    1924.367      5428.074     11763.641    1964.316
     5541.967     11819.652    1927.918      5566.186     11842.561    1967.189
     5682.627     11900.849    1927.721      5704.106     11921.297    1967.046
      158.892      8532.909    1732.589       159.155      8532.449    1765.049
      298.868      8613.945    1733.373       299.832      8613.558    1762.160
      438.688      8694.973    1734.527       440.672      8694.598    1763.895
      578.499      8775.961    1737.635       582.334      8775.587    1772.256
      718.370      8856.934    1741.419       724.115      8856.661    1776.443
      857.669      8937.916    1742.617       865.658      8937.778    1776.870
      997.250      9018.876    1745.852      1007.344      9018.906    1777.660
     1136.996      9099.830    1749.031      1151.104      9100.086    1783.337
     1275.632      9180.745    1747.158      1290.983      9181.221    1778.353
     1414.470      9261.631    1744.305      1433.228      9262.443    1778.562
     1551.485      9342.383    1738.854      1575.526      9343.720    1779.469
     1689.121      9423.089    1736.339      1716.878      9425.000    1779.122
     1828.178      9503.832    1736.738      1857.495      9506.278    1777.021
     1966.314      9584.420    1735.653      1995.894      9587.394    1772.470
     2105.540      9665.018    1735.925      2134.461      9668.528    1768.761
     2244.662      9745.485    1736.316      2276.114      9750.124    1769.158
     2383.369      9825.722    1736.879      2420.302      9832.368    1773.701
     2524.418      9906.246    1741.125      2564.483      9915.035    1780.259
     2664.683      9986.511    1746.068      2708.917      9998.257    1788.439
     2806.376     10067.100    1752.756      2848.750     10080.578    1792.259
     2949.412     10148.208    1759.173      2994.005     10164.992    1799.545
     3088.702     10227.875    1759.979      3131.508     10246.648    1798.125
     3228.208     10307.417    1759.284      3275.195     10331.015    1801.984
     3370.523     10388.374    1760.342      3413.133     10412.467    1800.835
     3509.224     10467.290    1757.573      3549.562     10492.573    1797.710
     3648.776     10546.610    1756.218      3682.063     10569.439    1790.866
     3785.739     10623.979    1755.000      3816.787     10647.012    1789.314
     3923.583     10701.802    1758.707      3955.904     10727.450    1797.680
     4065.058     10782.617    1770.652      4093.047     10806.093    1808.493
     4199.803     10857.843    1779.001      4232.390     10886.375    1826.389
     4345.965     10943.285    1809.498      4378.601     10972.731    1856.451
     4495.333     11032.121    1844.640      4530.822     11064.719    1892.928
     4623.692     11101.803    1847.557      4665.064     11140.105    1902.085
     4766.641     11185.062    1868.582      4809.195     11224.485    1923.453
     4919.715     11277.744    1903.114      4958.213     11313.318    1949.643
     5062.398     11360.806    1920.412      5099.057     11394.600    1960.713
     5196.406     11435.884    1920.885      5234.235     11470.722    1961.954
     5334.802     11515.005    1919.895      5368.369     11545.935    1960.269
     5476.121     11596.813    1920.497      5503.114     11621.734    1957.627
     5618.149     11679.271    1924.302      5642.685     11702.001    1961.241
     5759.023     11760.653    1924.109      5780.943     11781.065    1961.043
      238.348      8395.287    1732.032       238.690      8394.689    1767.401
      378.264      8476.348    1731.391       379.436      8475.863    1762.359
      517.980      8557.376    1732.134       520.354      8556.926    1763.227
      657.783      8638.345    1735.671       661.913      8637.954    1768.377
      797.412      8719.315    1738.181       803.462      8719.050    1770.307
      936.208      8800.291    1738.668       944.425      8800.175    1769.044
     1074.744      8881.228    1740.075      1086.230      8881.289    1771.263
     1214.656      8962.161    1744.435      1228.166      8962.423    1773.176
     1355.117      9043.116    1747.071      1372.173      9043.644    1777.726
     1493.984      9124.013    1745.105      1515.091      9124.894    1779.414
     1633.239      9204.902    1743.837      1657.486      9206.175    1780.746
     1771.225      9285.687    1741.582      1799.163      9287.471    1781.256
     1906.908      9366.233    1736.852      1934.065      9368.313    1771.599
     2046.355      9446.977    1737.033      2074.066      9449.513    1769.717
     2186.559      9527.739    1737.806      2214.121      9530.771    1767.584
     2325.046      9608.216    1736.695      2356.158      9612.375    1767.246
     2463.530      9688.516    1736.470      2500.150      9694.513    1770.225
     2604.911      9769.168    1740.445      2650.624      9778.359    1780.854
     2747.715      9850.150    1746.248      2792.997      9861.265    1785.204
     2887.190      9930.275    1749.128      2930.191      9943.043    1785.141
     3025.851     10009.874    1750.241      3067.773     10024.769    1784.881
     3164.189     10088.972    1749.548      3208.937     10107.726    1787.243
     3309.308     10170.955    1753.776      3359.870     10195.527    1798.649
     3453.318     10252.873    1757.480      3498.128     10277.676    1799.676
     3590.387     10330.940    1754.948      3634.171     10358.070    1797.749
     3729.936     10410.301    1755.272      3770.245     10437.831    1795.505
     3866.221     10487.217    1754.823      3904.907     10515.935    1795.264
     4005.038     10565.836    1760.910      4044.514     10597.281    1806.294
     4144.247     10644.827    1772.062      4176.626     10672.171    1814.080
     4286.923     10727.045    1793.779      4321.579     10757.603    1842.626
     4433.232     10812.935    1825.462      4466.945     10843.484    1873.501
     4571.035     10891.327    1845.136      4604.116     10921.743    1890.502
     4704.393     10965.659    1855.600      4739.992     10998.540    1902.458
     4854.830     11055.840    1886.435      4891.274     11089.422    1932.044
     5005.583     11146.275    1915.785      5042.071     11179.724    1956.828
     5136.457     11218.503    1918.343      5174.860     11253.526    1957.429
     5272.198     11295.242    1920.170      5308.196     11327.944    1956.704
     5413.580     11377.118    1921.886      5444.523     11405.166    1956.944
     5554.026     11458.136    1920.935      5579.948     11481.622    1954.474
     5695.654     11540.214    1923.668      5721.042     11563.249    1959.100
     5836.734     11621.781    1923.510      5859.445     11642.458    1958.867
      317.835      8257.610    1733.290       318.188      8256.995    1764.713
      457.923      8338.637    1735.319       459.273      8338.069    1766.884
      597.794      8419.679    1735.754       600.570      8419.152    1767.832
      737.006      8500.733    1733.404       741.645      8500.304    1765.348
      875.750      8581.727    1732.504       883.218      8581.418    1766.428
     1014.764      8662.663    1735.552      1024.292      8662.551    1765.681
     1153.828      8743.588    1739.122      1166.993      8743.677    1769.976
     1291.367      8824.475    1738.991      1306.711      8824.780    1767.485
     1431.269      8905.390    1741.799      1454.923      8906.106    1778.974
     1570.577      8986.283    1741.827      1596.521      8987.313    1778.700
     1713.026      9067.314    1745.508      1739.615      9068.616    1781.086
     1852.437      9148.208    1745.150      1880.342      9149.845    1780.158
     1989.757      9228.934    1742.394      2019.155      9230.976    1776.213
     2126.609      9309.542    1739.351      2157.981      9312.121    1773.255
     2265.519      9390.220    1738.286      2295.923      9393.212    1768.374
     2404.962      9470.862    1737.304      2438.239      9474.835    1766.846
     2542.659      9551.136    1735.629      2579.853      9556.592    1766.086
     2683.535      9631.720    1737.998      2732.783      9640.642    1776.019
     2825.294      9712.428    1741.268      2880.123      9724.659    1782.051
     2961.410      9791.600    1740.074      3010.783      9805.075    1776.020
     3097.290      9870.041    1737.793      3144.246      9885.585    1772.333
     3237.757      9949.496    1737.688      3284.885      9968.192    1774.390
     3382.409     10030.697    1740.907      3432.681     10054.213    1783.452
     3530.263     10114.104    1748.687      3581.381     10141.789    1794.950
     3671.331     10194.383    1751.799      3720.926     10224.891    1797.890
     3810.076     10273.192    1753.474      3857.525     10305.726    1797.853
     3947.084     10350.585    1755.669      3994.191     10385.952    1801.228
     4087.621     10430.589    1765.232      4129.762     10464.745    1810.315
     4223.785     10507.038    1775.321      4258.029     10536.627    1816.732
     4374.897     10596.969    1810.120      4418.763     10636.610    1867.349
     4520.234     10682.398    1841.445      4558.937     10718.091    1894.665
     4646.547     10750.256    1846.670      4686.837     10787.676    1901.237
     4788.262     10832.398    1869.916      4824.247     10865.723    1915.974
     4945.872     10929.181    1908.528      4978.936     10959.578    1947.401
     5085.743     11009.549    1922.346      5121.863     11042.479    1959.576
     5210.229     11076.030    1917.581      5246.483     11108.820    1951.427
     5346.397     11153.232    1918.805      5381.672     11184.916    1952.212
     5491.086     11238.094    1922.775      5523.955     11267.455    1958.100
     5630.627     11318.333    1920.079      5660.327     11344.769    1956.657
     5773.679     11401.682    1924.060      5801.818     11426.695    1960.938
     5914.919     11483.395    1923.837      5940.199     11505.898    1960.738
      397.274      8120.018    1729.513       397.641      8119.377    1758.656
      537.464      8200.972    1735.188       538.922      8200.357    1765.619
      677.483      8282.003    1736.573       680.328      8281.469    1765.742
      816.995      8363.050    1735.696       821.818      8362.617    1764.716
      955.277      8444.086    1732.507       962.881      8443.790    1762.236
     1093.776      8525.031    1733.967      1104.499      8524.924    1763.283
     1232.445      8605.948    1736.859      1246.473      8606.056    1765.702
     1370.232      8686.833    1737.948      1390.099      8687.230    1770.547
     1508.451      8767.703    1738.895      1537.064      8768.543    1778.407
     1646.579      8848.545    1738.333      1678.167      8849.730    1777.468
     1788.100      8929.512    1740.989      1820.471      8930.979    1778.554
     1930.679      9010.552    1744.382      1967.579      9012.524    1784.291
     2070.189      9091.435    1744.197      2104.221      9093.560    1778.350
     2208.216      9172.185    1742.394      2244.874      9174.868    1777.139
     2346.577      9252.892    1740.147      2383.222      9256.071    1771.903
     2486.375      9333.653    1738.321      2523.905      9337.583    1767.425
     2621.210      9413.703    1733.514      2669.064      9419.863    1767.433
     2761.824      9494.270    1734.317      2821.535      9503.808    1773.555
     2897.554      9573.765    1732.384      2960.021      9586.140    1771.433
     3030.266      9651.906    1728.187      3093.376      9667.432    1767.340
     3173.002      9731.960    1729.214      3229.113      9749.008    1765.461
     3313.937      9811.322    1728.262      3364.630      9830.125    1764.238
     3455.138      9890.562    1728.067      3510.896      9915.448    1772.224
     3602.658      9973.007    1735.724      3656.040     10001.169    1780.936
     3747.859     10055.088    1743.760      3802.684     10088.610    1790.770
     3890.139     10135.956    1750.465      3943.982     10173.284    1796.721
     4027.961     10213.818    1755.418      4080.532     10254.255    1801.954
     4170.139     10295.156    1768.140      4219.271     10336.397    1816.795
     4308.413     10373.468    1782.978      4353.710     10414.303    1834.719
     4446.742     10452.026    1804.374      4509.632     10511.518    1880.791
     4596.488     10541.999    1840.801      4640.185     10583.961    1898.932
     4728.862     10615.366    1855.989      4770.600     10655.264    1911.474
     4881.673     10708.089    1894.844      4916.811     10741.062    1938.023
     5030.483     10796.655    1921.108      5063.835     10827.394    1957.470
     5155.219     10863.136    1918.142      5193.643     10898.066    1954.444
     5283.922     10933.551    1917.254      5328.434     10973.557    1955.630
     5426.818     11016.831    1923.349      5468.376     11053.809    1960.562
     5569.167     11099.602    1924.256      5604.053     11130.366    1960.487
     5708.832     11179.998    1921.149      5740.985     11208.151    1959.688
     5852.555     11263.924    1925.544      5882.831     11290.312    1963.521
     5993.922     11345.759    1925.300      6021.218     11369.520    1963.351
      476.648      7982.539    1721.583       477.008      7981.911    1747.409
      616.707      8063.429    1728.910       618.152      8062.826    1756.214
      756.685      8144.417    1732.035       759.718      8143.859    1760.100
      896.283      8225.430    1733.009       900.842      8225.034    1757.455
     1035.040      8306.439    1732.631      1043.227      8306.137    1760.803
     1173.710      8387.390    1734.323      1186.265      8387.284    1764.690
     1311.578      8468.312    1735.367      1328.123      8468.454    1765.969
     1448.635      8549.187    1735.792      1471.796      8549.648    1770.171
     1586.268      8630.042    1736.702      1615.081      8630.857    1772.303
     1724.139      8710.882    1736.591      1759.275      8712.119    1774.943
     1861.172      8791.660    1734.782      1899.000      8793.236    1772.910
     2004.307      8872.687    1738.827      2044.846      8874.646    1776.615
     2149.088      8953.835    1743.498      2187.923      8956.000    1777.045
     2291.873      9034.921    1745.147      2337.000      9037.830    1781.523
     2434.031      9116.005    1744.464      2474.782      9119.080    1774.464
     2573.695      9196.918    1740.696      2618.313      9200.936    1770.472
     2706.140      9277.012    1733.059      2758.450      9282.795    1765.139
     2840.894      9356.990    1729.119      2902.055      9365.429    1762.997
     2971.349      9435.772    1724.186      3037.129      9447.067    1758.035
     3101.069      9513.285    1718.217      3179.323      9530.258    1759.464
     3248.249      9594.022    1720.530      3316.400      9612.694    1759.173
     3390.310      9673.467    1719.432      3451.360      9694.327    1758.604
     3531.142      9752.224    1718.540      3588.270      9776.233    1760.199
     3672.014      9830.671    1721.203      3734.577      9862.505    1769.848
     3821.395      9914.038    1733.198      3883.219      9951.457    1781.535
     3965.311      9995.242    1742.039      4023.467     10036.160    1787.761
     4100.893     10070.601    1746.531      4164.128     10121.049    1798.029
     4243.249     10151.344    1759.485      4305.776     10206.834    1817.398
     4393.657     10240.689    1786.987      4438.494     10283.917    1836.968
     4521.450     10308.938    1797.008      4598.007     10386.526    1890.057
     4683.436     10412.305    1850.100      4725.031     10455.015    1903.795
     4824.122     10493.626    1877.491      4865.744     10535.511    1931.483
     4975.749     10585.093    1914.906      5011.608     10619.703    1957.361
     5106.647     10656.448    1921.284      5142.859     10690.150    1958.355
     5228.310     10720.049    1916.499      5270.553     10758.441    1953.590
     5359.629     10792.930    1917.792      5409.583     10837.591    1958.296
     5504.000     10877.549    1924.250      5555.023     10922.569    1968.371
     5646.021     10960.057    1924.209      5684.619     10993.697    1963.698
     5787.320     11041.924    1922.284      5821.034     11070.992    1962.404
     5932.687     11127.244    1928.498      5964.265     11154.252    1966.999
     6074.098     11209.126    1928.184      6102.654     11233.441    1966.820
      556.064      7844.988    1717.386       556.391      7844.417    1739.181
      695.902      7925.901    1722.576       697.202      7925.371    1745.251
      835.584      8006.881    1725.266       838.632      8006.337    1751.322
      974.843      8087.869    1726.729       980.651      8087.386    1755.275
     1114.392      8168.805    1730.835      1124.142      8168.471    1761.259
     1254.292      8249.748    1735.380      1268.635      8249.646    1766.921
     1391.550      8330.685    1734.859      1410.645      8330.860    1767.476
     1528.188      8411.564    1734.786      1552.123      8412.034    1767.762
     1664.676      8492.404    1734.605      1695.146      8493.225    1769.117
     1801.935      8573.239    1734.315      1840.772      8574.508    1772.557
     1938.354      8654.015    1732.517      1982.460      8655.687    1772.056
     2079.428      8734.948    1734.849      2124.947      8736.916    1772.151
     2221.774      8815.943    1737.188      2269.050      8818.262    1772.762
     2370.703      8897.318    1742.083      2414.180      8899.748    1772.081
     2519.639      8978.826    1743.708      2562.612      8981.588    1770.671
     2663.886      9060.174    1740.613      2708.444      9063.541    1766.520
     2790.891      9140.112    1728.605      2846.342      9145.214    1758.762
     2922.046      9219.976    1722.143      2990.846      9227.960    1755.071
     3045.938      9298.172    1714.670      3135.111      9311.235    1753.604
     3182.224      9377.109    1711.996      3271.308      9393.859    1753.599
     3328.319      9457.567    1714.098      3411.301      9477.669    1756.066
     3468.807      9536.569    1712.663      3543.132      9559.501    1755.470
     3606.371      9613.965    1710.019      3675.425      9640.754    1755.405
     3744.780      9690.695    1711.326      3811.994      9723.058    1758.413
     3889.681      9770.182    1719.734      3959.416      9811.375    1769.249
     4033.488      9849.523    1727.938      4095.874      9893.863    1773.444
     4169.943      9923.529    1733.156      4237.382      9979.754    1785.015
     4316.380     10006.343    1748.158      4380.730     10067.881    1805.662
     4458.989     10087.415    1764.343      4510.335     10141.781    1821.983
     4591.343     10158.670    1777.083      4684.969     10264.288    1897.146
     4714.565     10221.062    1782.594      4821.181     10342.123    1919.144
     4924.674     10380.137    1899.590      4965.603     10424.527    1952.414
     5062.857     10456.528    1921.000      5098.333     10492.320    1962.633
     5183.871     10517.294    1918.539      5224.280     10555.633    1958.610
     5306.966     10582.013    1916.740      5353.048     10624.023    1955.322
     5440.703     10657.127    1920.414      5491.762     10702.529    1960.358
     5582.011     10739.049    1924.678      5630.342     10781.285    1965.994
     5725.838     10823.132    1926.824      5763.334     10855.394    1965.043
     5870.493     10907.854    1928.921      5904.082     10936.351    1968.825
     6015.007     10992.377    1934.010      6047.584     11019.702    1972.799
     6156.550     11074.359    1933.735      6185.901     11098.793    1972.677
      635.534      7707.342    1716.799       635.900      7706.702    1740.481
      775.121      7788.355    1717.370       776.604      7787.771    1741.931
      914.652      7869.306    1720.701       918.192      7868.701    1749.387
     1053.806      7950.267    1723.055      1060.370      7949.751    1753.435
     1192.898      8031.198    1726.533      1204.004      8030.847    1758.878
     1331.416      8112.128    1728.777      1346.707      8112.043    1760.050
     1470.254      8193.047    1731.806      1491.330      8193.252    1765.539
     1608.893      8273.968    1734.701      1635.028      8274.468    1768.570
     1748.375      8354.909    1737.441      1781.470      8355.746    1772.510
     1880.950      8435.648    1732.346      1919.242      8436.790    1767.369
     2017.977      8516.479    1731.448      2067.638      8518.157    1772.433
     2154.846      8597.274    1730.695      2203.824      8599.126    1767.216
     2296.805      8678.246    1732.419      2346.474      8680.344    1766.060
     2446.339      8759.579    1735.819      2496.641      8761.960    1766.537
     2598.796      8841.171    1736.591      2648.568      8843.838    1764.151
     2742.408      8922.417    1730.679      2800.338      8925.984    1760.918
     2879.238      9003.284    1722.395      2944.117      9008.001    1754.413
     3005.462      9083.147    1712.647      3082.720      9090.155    1746.291
     3129.582      9161.870    1704.526      3223.788      9173.325    1745.474
     3269.296      9241.722    1705.255      3366.079      9257.275    1748.315
     3411.536      9321.742    1707.696      3496.617      9339.636    1747.490
     3548.340      9400.099    1706.702      3628.981      9422.107    1748.544
     3688.135      9478.493    1707.273      3757.937      9502.909    1747.899
     3828.169      9556.297    1710.295      3904.983      9590.285    1757.975
     3967.647      9632.689    1714.655      4043.859      9675.564    1763.669
     4108.778      9708.978    1719.997      4176.567      9757.119    1766.210
     4250.373      9785.475    1727.473      4315.090      9841.894    1775.583
     4395.239      9865.856    1738.858      4460.182      9933.378    1796.999
     4536.103      9943.822    1749.479      4584.589     10001.882    1806.658
     4671.044     10014.114    1758.743      4710.350     10068.521    1817.079
     4794.168     10075.028    1765.609      4902.650     10223.255    1916.738
     5006.531     10250.188    1893.429      5047.280     10299.375    1948.160
     5141.014     10319.620    1911.708      5184.153     10365.421    1963.255
     5264.855     10381.755    1914.456      5308.105     10423.701    1957.033
     5391.455     10449.305    1917.566      5437.686     10491.597    1955.459
     5525.077     10524.249    1922.435      5576.637     10569.739    1962.297
     5660.776     10601.273    1923.792      5712.365     10645.767    1968.107
     5809.681     10689.642    1932.664      5849.360     10723.231    1972.932
     5954.517     10774.402    1936.663      5988.025     10802.301    1975.683
     6098.485     10858.369    1940.200      6131.919     10885.815    1978.989