NOECHO

-- =============================================================================
-- 
-- Exported from Reek_base_sim
-- 
-- Exported by user asny from RMS11 at 2020-02-19 17:20:44
-- 
-- =============================================================================

MAPUNITS
'METRES  ' /

MAPAXES
456514.871 5939174.230
456514.871 5927115.548
467218.092 5927115.548 /

GRIDUNIT
'METRES  ' '        ' /

SPECGRID
  40  64  14   1  F  /

GDORIENT
INC INC INC DOWN RIGHT /

COORD
        0.000      8808.147    1731.707         0.194      8807.745    1764.213
      140.008      8889.186    1732.466       140.872      8888.819    1762.296
      279.928      8970.209    1734.476       281.642      8969.859    1763.200
      419.802      9051.208    1738.676       422.973      9050.860    1770.273
      559.704      9132.191    1743.716       564.667      9131.905    1776.391
      699.235      9213.181    1745.852       706.391      9212.996    1778.279
      838.697      9294.155    1747.908       848.438      9294.115    1779.926
      978.212      9375.111    1749.472       990.463      9375.270    1780.860
     1117.104      9456.034    1747.962      1131.868      9456.448    1779.114
     1255.021      9536.880    1744.056      1274.370      9537.701    1779.925
     1392.978      9617.660    1740.667      1416.669      9619.017    1780.732
     1530.758      9698.351    1738.175      1557.209      9700.286    1778.497
     1668.611      9778.956    1737.270      1698.029      9781.619    1776.661
     1806.353      9859.437    1736.781      1837.750      9862.899    1773.927
     1944.173      9939.776    1737.323      1976.131      9944.042    1771.158
     2081.946     10019.911    1738.218      2116.177     10025.433    1771.789
     2220.724     10099.988    1740.235      2260.784     10107.785    1778.237
     2360.729     10180.116    1744.338      2405.000     10190.471    1785.600
     2500.815     10260.110    1749.867      2546.934     10272.972    1791.561
     2642.205     10340.368    1756.979      2687.488     10355.283    1796.729
     2784.301     10420.859    1763.563      2829.856     10438.383    1803.050
     2923.686     10500.224    1765.659      2971.035     10521.208    1805.547
     3062.391     10579.039    1765.044      3112.138     10604.058    1807.235
     3203.608     10659.009    1764.915      3251.777     10686.107    1807.242
     3343.949     10738.512    1763.081      3386.964     10765.241    1802.902
     3482.801     10817.000    1760.529      3519.695     10842.062    1796.982
     3621.429     10895.188    1760.265      3653.976     10919.132    1794.853
     3760.841     10973.905    1763.885      3791.907     10998.410    1799.824
     3901.676     11053.896    1772.363      3932.534     11079.696    1811.374
     4042.527     11134.172    1785.949      4076.672     11164.066    1831.420
     4186.464     11217.533    1810.799      4227.647     11254.817    1863.471
     4332.542     11303.279    1837.633      4378.955     11346.208    1894.169
     4468.579     11379.956    1848.924      4517.536     11425.756    1908.697
     4611.992     11463.639    1869.641      4659.323     11508.123    1928.619
     4759.479     11551.241    1897.540      4801.954     11591.229    1950.491
     4902.447     11634.622    1916.134      4942.420     11672.319    1964.673
     5041.013     11713.860    1922.133      5079.673     11750.422    1968.766
     5180.343     11793.808    1923.914      5213.015     11824.835    1966.501
     5320.885     11874.905    1925.407      5348.575     11901.336    1966.034
     5462.280     11956.812    1929.115      5486.369     11979.952    1968.711
     5603.270     12038.330    1928.908      5624.293     12058.681    1968.587
       79.453      8670.504    1731.728        79.676      8670.113    1764.209
      219.497      8751.542    1732.490       220.376      8751.182    1762.323
      359.467      8832.563    1734.514       361.209      8832.219    1763.250
      499.431      8913.560    1738.734       502.637      8913.222    1770.305
      639.471      8994.544    1743.747       644.454      8994.271    1776.406
      779.201      9075.539    1745.900       786.270      9075.373    1778.295
      918.762      9156.521    1747.952       928.429      9156.500    1779.948
     1058.258      9237.488    1749.495      1070.540      9237.661    1780.860
     1197.293      9318.427    1747.975      1211.916      9318.840    1779.118
     1335.501      9399.299    1744.094      1354.312      9400.090    1779.925
     1473.565      9480.108    1740.715      1496.341      9481.385    1780.730
     1611.543      9560.841    1738.237      1636.623      9562.626    1778.495
     1749.892      9641.530    1737.313      1777.407      9643.941    1776.661
     1888.396      9722.148    1736.869      1917.507      9725.245    1773.919
     2027.114      9802.689    1737.431      2056.780      9806.505    1771.151
     2165.816      9883.099    1738.353      2197.968      9888.095    1771.844
     2305.557      9963.534    1740.480      2343.401      9970.641    1778.360
     2446.256     10044.054    1744.658      2488.044     10053.510    1785.721
     2586.807     10124.470    1750.290      2630.854     10136.389    1791.689
     2728.614     10205.201    1757.435      2772.717     10219.337    1796.926
     2871.238     10286.275    1763.876      2916.125     10303.132    1803.264
     3011.103     10366.301    1765.754      3056.827     10386.150    1805.677
     3150.120     10445.757    1765.191      3196.866     10468.864    1807.372
     3291.107     10526.076    1764.974      3335.696     10550.805    1807.235
     3431.543     10606.096    1763.011      3471.449     10630.608    1802.759
     3570.933     10685.412    1760.504      3605.230     10708.497    1796.946
     3709.197     10763.817    1760.423      3739.524     10785.971    1795.099
     3847.309     10841.951    1764.273      3876.344     10864.729    1800.334
     3986.644     10921.017    1772.839      4015.158     10944.760    1811.860
     4126.188     11000.369    1786.615      4157.233     11027.463    1831.788
     4269.137     11082.958    1811.522      4305.326     11115.635    1863.041
     4413.229     11166.928    1837.804      4454.026     11204.552    1893.271
     4548.797     11243.201    1849.001      4592.842     11284.256    1908.243
     4691.786     11326.489    1869.722      4734.939     11366.852    1928.032
     4838.359     11413.207    1897.422      4877.984     11450.281    1949.782
     4980.690     11495.977    1915.997      5019.840     11532.623    1964.448
     5119.563     11575.512    1922.110      5157.914     11611.479    1968.776
     5259.834     11656.358    1923.924      5292.129     11686.741    1966.646
     5401.142     11738.178    1925.445      5428.387     11763.924    1966.233
     5542.649     11820.193    1929.134      5566.649     11843.000    1968.871
     5683.205     11901.299    1928.925      5704.566     11921.748    1968.741
      158.900      8532.896    1730.621       159.177      8532.415    1765.168
      298.909      8613.933    1731.040       299.893      8613.531    1760.833
      438.762      8694.962    1731.966       440.678      8694.595    1760.022
      578.614      8775.954    1735.567       582.265      8775.589    1767.552
      718.859      8856.913    1741.942       724.215      8856.647    1773.450
      858.248      8937.911    1742.995       865.893      8937.761    1774.675
      997.815      9018.886    1745.793      1007.646      9018.890    1775.329
     1137.593      9099.852    1748.431      1151.276      9100.065    1780.166
     1276.539      9180.789    1747.135      1291.301      9181.209    1775.960
     1414.402      9261.652    1743.104      1433.678      9262.438    1777.124
     1551.709      9342.428    1738.890      1576.008      9343.722    1778.939
     1689.382      9423.147    1736.266      1716.262      9424.938    1777.383
     1828.427      9503.896    1736.187      1856.605      9506.187    1775.271
     1966.190      9584.465    1734.449      1995.475      9587.337    1771.074
     2105.676      9665.108    1735.445      2133.227      9668.365    1766.309
     2244.558      9745.577    1735.940      2277.106      9750.228    1769.022
     2383.435      9825.888    1736.802      2423.621      9832.854    1775.391
     2524.281      9906.419    1740.754      2567.716      9915.541    1781.135
     2664.038      9986.614    1744.859      2711.562      9998.628    1787.025
     2806.723     10067.514    1751.486      2851.352     10080.973    1789.134
     2952.366     10149.576    1759.124      2996.679     10165.356    1795.918
     3090.469     10228.992    1758.991      3133.783     10246.971    1795.807
     3228.531     10308.002    1757.631      3277.123     10331.163    1801.378
     3371.458     10389.260    1759.777      3416.285     10413.430    1802.820
     3510.579     10468.502    1757.229      3552.026     10493.432    1798.383
     3649.837     10547.669    1754.937      3684.083     10570.381    1790.496
     3787.276     10625.426    1754.454      3816.517     10646.568    1787.237
     3924.312     10702.634    1758.097      3954.442     10726.108    1795.025
     4065.990     10783.521    1771.260      4092.751     10805.707    1807.718
     4201.234     10859.136    1780.577      4232.603     10886.442    1826.426
     4345.648     10942.930    1808.458      4380.418     10974.255    1859.179
     4495.844     11032.475    1844.764      4534.096     11067.638    1898.402
     4624.683     11102.573    1847.664      4667.423     11142.203    1906.074
     4767.417     11185.628    1868.531      4811.443     11226.482    1927.413
     4920.353     11278.200    1903.818      4961.324     11316.114    1955.447
     5063.175     11361.393    1921.914      5100.451     11395.804    1964.954
     5196.511     11435.846    1921.505      5235.963     11472.235    1966.295
     5336.075     11516.048    1921.794      5369.276     11546.699    1962.870
     5476.687     11597.211    1921.461      5503.904     11622.399    1959.396
     5618.789     11679.750    1925.468      5643.452     11702.666    1962.738
     5759.514     11761.003    1925.252      5781.646     11781.687    1962.558
      238.359      8395.270    1730.542       238.692      8394.688    1766.432
      378.294      8476.339    1728.865       379.406      8475.875    1758.789
      518.097      8557.358    1730.254       520.433      8556.909    1760.446
      658.047      8638.324    1734.861       661.957      8637.944    1765.026
      797.796      8719.306    1738.096       803.777      8719.025    1769.181
      936.436      8800.299    1737.738       943.834      8800.172    1764.839
     1075.372      8881.250    1740.230      1085.849      8881.270    1768.339
     1215.420      8962.196    1744.520      1228.271      8962.401    1771.384
     1355.545      9043.150    1746.391      1371.917      9043.603    1775.250
     1494.334      9124.053    1744.739      1515.128      9124.857    1777.923
     1633.039      9204.921    1743.178      1656.912      9206.107    1779.123
     1770.721      9285.688    1740.607      1799.063      9287.429    1780.814
     1907.246      9366.300    1736.778      1934.900      9368.356    1772.853
     2046.960      9447.075    1737.151      2076.861      9449.744    1772.872
     2186.005      9527.732    1736.984      2214.966      9530.839    1768.038
     2324.938      9608.277    1736.650      2356.286      9612.346    1766.757
     2464.055      9688.715    1737.072      2502.138      9694.734    1770.839
     2604.652      9769.276    1740.133      2655.082      9778.992    1782.432
     2746.064      9849.953    1744.283      2794.595      9861.292    1783.127
     2886.646      9930.380    1747.195      2931.466      9942.980    1781.573
     3027.442     10010.763    1749.181      3069.373     10024.817    1781.406
     3165.619     10090.006    1748.351      3210.419     10107.699    1784.628
     3309.094     10171.250    1751.642      3363.477     10196.206    1799.316
     3452.452     10252.717    1755.158      3498.795     10277.060    1798.885
     3590.436     10331.337    1753.085      3634.036     10357.156    1794.751
     3730.585     10411.053    1753.246      3771.333     10437.884    1793.105
     3867.319     10488.328    1753.616      3906.378     10516.533    1794.897
     4006.995     10567.587    1761.677      4043.483     10596.097    1804.419
     4145.538     10646.003    1772.878      4175.281     10670.833    1811.827
     4288.545     10728.426    1795.261      4322.061     10757.837    1842.717
     4434.508     10813.958    1826.370      4468.669     10844.909    1875.684
     4571.539     10891.617    1844.798      4604.676     10922.145    1891.317
     4704.613     10965.662    1854.715      4740.971     10999.319    1903.776
     4855.686     11056.448    1886.785      4891.667     11089.667    1932.904
     5005.461     11146.001    1915.566      5042.024     11179.562    1957.871
     5135.784     11217.724    1917.783      5173.552     11252.197    1957.504
     5272.159     11295.050    1920.511      5310.752     11330.134    1960.650
     5416.098     11379.258    1925.274      5445.244     11405.696    1958.487
     5555.287     11459.147    1923.034      5580.948     11482.420    1955.945
     5696.675     11541.023    1925.585      5722.594     11564.571    1961.170
     5837.569     11622.436    1925.423      5860.806     11643.631    1960.925
      317.840      8257.606    1731.666       318.162      8257.043    1762.058
      457.989      8338.612    1734.070       459.221      8338.095    1763.326
      598.036      8419.636    1735.467       600.386      8419.186    1762.211
      737.310      8500.711    1732.994       741.291      8500.332    1759.948
      876.129      8581.724    1732.414       882.798      8581.424    1762.794
     1015.107      8662.679    1735.124      1023.360      8662.547    1761.839
     1154.039      8743.616    1738.369      1166.081      8743.646    1767.353
     1292.034      8824.524    1739.113      1306.768      8824.754    1767.011
     1432.691      8905.465    1743.017      1455.473      8906.065    1779.228
     1570.766      8986.330    1741.346      1595.211      8987.209    1776.321
     1712.333      9067.311    1744.331      1738.738      9068.516    1780.044
     1851.829      9148.200    1744.390      1881.294      9149.844    1782.039
     1989.924      9228.974    1742.531      2020.362      9231.014    1778.657
     2126.850      9309.590    1739.383      2159.038      9312.167    1774.849
     2265.074      9390.209    1737.884      2297.714      9393.344    1770.229
     2405.038      9470.915    1737.681      2439.918      9474.967    1768.262
     2544.525      9551.479    1737.403      2582.921      9556.929    1767.788
     2683.448      9631.823    1737.915      2732.717      9640.397    1774.070
     2823.471      9712.200    1739.533      2883.203      9724.909    1781.248
     2960.600      9791.674    1738.410      3014.561      9805.631    1775.081
     3099.229      9871.105    1737.159      3148.900      9886.608    1771.860
     3239.006      9950.537    1736.416      3283.418      9967.098    1770.007
     3381.311     10030.766    1738.163      3430.124     10052.243    1778.855
     3528.662     10113.655    1745.406      3579.649     10139.738    1790.525
     3670.057     10193.969    1748.082      3721.045     10223.818    1793.310
     3809.817     10273.336    1750.248      3859.031     10305.761    1794.834
     3947.658     10351.293    1753.830      3992.797     10384.190    1798.117
     4089.385     10432.141    1765.713      4129.156     10463.743    1809.292
     4225.873     10508.859    1776.801      4256.896     10535.396    1814.672
     4377.428     10599.105    1812.345      4421.539     10638.863    1870.183
     4521.086     10682.996    1841.517      4558.551     10717.615    1893.668
     4648.053     10751.405    1847.364      4685.223     10786.049    1898.568
     4789.651     10833.435    1870.571      4825.249     10866.500    1916.849
     4944.556     10927.759    1906.337      4978.149     10958.706    1946.369
     5085.445     11009.069    1921.635      5122.323     11042.728    1960.338
     5210.870     11076.407    1917.961      5248.898     11110.812    1954.156
     5346.865     11153.472    1919.492      5385.747     11188.386    1956.550
     5492.964     11239.610    1925.416      5527.269     11270.239    1961.703
     5631.917     11319.341    1922.462      5664.833     11348.625    1961.772
     5775.039     11402.768    1926.519      5805.440     11429.785    1965.005
     5916.054     11484.300    1926.282      5943.461     11508.699    1964.881
      397.283      8120.007    1728.527       397.576      8119.495    1753.148
      537.583      8200.924    1735.361       538.809      8200.412    1761.285
      677.767      8281.952    1736.931       679.966      8281.538    1759.247
      817.376      8363.021    1736.038       821.298      8362.656    1759.654
      955.724      8444.084    1732.885       962.645      8443.783    1760.879
     1094.598      8525.046    1735.236      1103.787      8524.908    1761.861
     1232.909      8605.986    1737.105      1245.419      8606.019    1764.522
     1371.122      8686.896    1738.782      1389.154      8687.165    1770.188
     1509.053      8767.774    1738.962      1535.404      8768.421    1777.144
     1647.125      8848.625    1738.330      1676.087      8849.581    1775.555
     1786.830      8929.507    1739.263      1817.992      8930.794    1776.786
     1929.720      9010.533    1743.528      1967.340      9012.415    1785.898
     2070.802      9091.493    1745.051      2105.746      9093.577    1781.627
     2209.245      9172.273    1743.436      2245.475      9174.840    1778.724
     2347.372      9252.969    1741.053      2384.657      9256.122    1773.821
     2486.978      9333.723    1739.263      2526.835      9337.791    1770.223
     2621.833      9413.819    1734.275      2673.714      9420.299    1770.195
     2762.218      9494.398    1734.443      2826.491      9504.299    1774.942
     2895.427      9573.514    1730.732      2963.675      9586.469    1771.496
     3029.533      9652.062    1726.808      3093.846      9667.113    1765.073
     3175.080      9732.989    1728.271      3227.679      9748.085    1761.438
     3313.734      9811.822    1725.831      3363.741      9829.257    1760.640
     3453.459      9890.548    1725.038      3509.150      9913.879    1768.130
     3600.445      9972.474    1731.871      3656.387     10000.251    1777.382
     3746.877     10054.937    1740.153      3805.438     10088.882    1787.823
     3890.110     10136.233    1747.428      3948.235     10174.840    1796.052
     4030.192     10215.729    1755.253      4081.640     10254.093    1801.996
     4173.482     10297.964    1770.437      4218.259     10334.848    1816.050
     4311.761     10376.357    1785.808      4355.712     10415.698    1836.245
     4449.603     10454.483    1806.712      4510.168     10511.847    1880.487
     4598.114     10543.290    1841.878      4640.363     10584.076    1898.496
     4730.475     10616.583    1856.774      4769.371     10653.973    1908.861
     4881.954     10708.076    1893.867      4915.148     10739.352    1934.943
     5029.712     10795.682    1919.241      5067.396     10830.493    1960.638
     5155.750     10863.346    1917.727      5195.835     10899.813    1955.973
     5284.458     10933.791    1917.104      5330.243     10974.925    1956.897
     5426.549     11016.381    1923.113      5472.085     11056.851    1963.545
     5569.732     11099.918    1925.461      5608.719     11134.244    1964.620
     5710.594     11181.388    1924.201      5746.326     11212.616    1964.975
     5854.098     11265.137    1928.102      5886.856     11293.638    1967.270
     5995.260     11346.817    1927.868      6024.830     11372.514    1967.180
      476.680      7982.488    1721.665       476.939      7982.035    1741.685
      616.893      8063.354    1730.496       618.005      8062.897    1751.975
      756.949      8144.372    1732.661       759.312      8143.936    1754.641
      896.510      8225.419    1733.019       900.248      8225.081    1753.579
     1035.268      8306.448    1732.688      1042.739      8306.135    1760.178
     1174.024      8387.416    1734.805      1185.506      8387.252    1765.158
     1312.061      8468.359    1736.272      1326.824      8468.397    1766.254
     1449.593      8549.264    1737.095      1470.053      8549.549    1770.444
     1587.867      8630.153    1738.278      1614.795      8630.760    1774.333
     1725.369      8711.000    1737.402      1758.431      8711.986    1775.800
     1862.063      8791.778    1735.355      1897.467      8793.082    1773.099
     2004.672      8872.759    1739.243      2045.321      8874.553    1779.172
     2150.907      8953.953    1745.372      2191.670      8956.083    1782.236
     2294.551      9035.083    1747.609      2338.188      9037.776    1783.973
     2436.218      9116.142    1746.579      2476.850      9119.114    1777.219
     2573.912      9196.900    1741.481      2619.133      9200.868    1772.069
     2704.357      9276.796    1732.206      2756.838      9282.441    1763.977
     2840.967      9357.009    1728.786      2906.171      9365.724    1763.907
     2971.441      9435.882    1723.574      3039.298      9447.123    1757.887
     3102.638      9513.886    1717.781      3178.660      9529.676    1757.524
     3250.746      9595.028    1719.326      3312.726      9611.150    1754.628
     3389.028      9673.559    1716.309      3448.663      9692.765    1754.054
     3529.377      9752.203    1715.631      3589.340      9775.868    1757.863
     3671.118      9831.060    1718.692      3737.763      9862.930    1768.102
     3822.337      9915.161    1731.324      3887.147      9952.259    1779.771
     3966.102      9996.190    1740.107      4026.019     10036.492    1786.550
     4102.867     10072.512    1746.316      4164.626     10120.264    1798.462
     4246.795     10154.526    1762.040      4309.933     10209.601    1822.160
     4396.752     10243.412    1789.702      4442.860     10287.708    1841.016
     4523.663     10310.734    1799.127      4598.795     10387.359    1890.620
     4685.047     10413.661    1851.755      4725.553     10455.628    1904.037
     4825.468     10494.681    1878.113      4865.732     10535.506    1930.233
     4976.695     10585.732    1914.449      5013.636     10621.559    1958.189
     5106.449     10655.927    1919.577      5144.863     10691.757    1958.985
     5228.232     10719.640    1915.076      5272.304     10759.705    1953.851
     5358.853     10791.950    1916.143      5410.077     10837.692    1957.578
     5503.114     10876.525    1923.099      5554.990     10922.198    1967.055
     5645.570     10959.461    1924.218      5685.204     10993.908    1962.950
     5788.234     11042.543    1924.343      5823.722     11073.042    1964.031
     5933.927     11128.158    1930.476      5966.792     11156.172    1968.286
     6075.258     11209.998    1930.159      6104.860     11235.120    1968.128
      556.118      7844.897    1718.349       556.378      7844.443    1737.672
      696.093      7925.823    1724.184       697.009      7925.457    1741.040
      835.886      8006.832    1726.669       838.349      8006.392    1748.479
      975.093      8087.861    1727.292       980.379      8087.400    1754.672
     1114.523      8168.823    1731.073      1123.868      8168.448    1763.058
     1254.625      8249.771    1736.795      1268.461      8249.581    1770.711
     1392.058      8330.735    1736.610      1410.147      8330.776    1771.127
     1529.184      8411.651    1736.689      1552.020      8411.940    1771.876
     1667.286      8492.553    1737.587      1696.332      8493.138    1773.817
     1804.607      8573.417    1736.679      1839.847      8574.342    1774.028
     1940.183      8654.191    1733.931      1980.501      8655.479    1772.282
     2080.394      8735.076    1735.567      2124.158      8736.739    1773.312
     2223.424      8816.071    1738.351      2272.660      8818.271    1776.839
     2371.580      8897.359    1742.763      2416.184      8899.698    1774.420
     2518.058      8978.676    1743.222      2561.617      8981.362    1771.223
     2663.941      9060.098    1741.294      2709.834      9063.468    1768.318
     2791.062      9140.055    1728.688      2847.867      9145.150    1759.150
     2921.519      9219.863    1721.236      2997.309      9228.416    1756.836
     3048.143      9298.507    1714.724      3137.437      9311.209    1754.126
     3184.093      9377.555    1711.472      3265.991      9392.422    1750.521
     3329.996      9458.137    1712.623      3408.030      9476.227    1752.861
     3467.693      9536.585    1709.989      3540.928      9558.020    1751.564
     3606.121      9614.479    1708.261      3681.009      9641.865    1755.596
     3744.641      9691.511    1709.556      3819.906      9725.615    1759.951
     3891.327      9771.983    1718.780      3964.809      9813.014    1769.193
     4034.324      9850.845    1726.709      4094.863      9891.925    1770.510
     4169.695      9923.977    1731.469      4237.769      9978.942    1785.380
     4317.669     10007.684    1748.681      4381.355     10067.578    1806.918
     4460.322     10088.460    1765.647      4512.664     10143.812    1824.370
     4592.001     10158.655    1778.355      4685.769     10265.368    1899.800
     4714.670     10220.238    1783.802      4824.410     10346.092    1923.719
     4924.402     10379.662    1898.512      4967.041     10426.272    1953.228
     5063.018     10456.385    1919.537      5099.211     10493.071    1961.875
     5183.310     10516.347    1916.156      5225.835     10556.755    1958.206
     5306.228     10580.942    1914.382      5351.951     10622.602    1952.431
     5440.090     10656.250    1918.456      5489.702     10700.268    1956.772
     5581.741     10738.535    1923.505      5628.953     10779.659    1962.640
     5725.645     10822.731    1926.460      5762.008     10853.894    1961.595
     5870.900     10907.996    1929.681      5904.226     10936.143    1966.708
     6015.976     10993.014    1934.978      6048.438     11020.111    1971.463
     6157.479     11074.992    1934.694      6186.523     11099.054    1971.308
      635.597      7707.236    1718.527       635.913      7706.683    1742.255
      775.345      7788.265    1719.543       776.605      7787.779    1742.479
      914.927      7869.266    1722.177       918.044      7868.731    1749.298
     1054.055      7950.266    1723.891      1059.930      7949.776    1753.248
     1193.399      8031.212    1728.064      1204.005      8030.806    1762.345
     1331.571      8112.175    1729.608      1346.227      8111.983    1763.226
     1470.791      8193.111    1733.988      1491.131      8193.147    1770.480
     1609.730      8274.052    1736.942      1635.733      8274.340    1774.684
     1750.617      8355.027    1740.568      1781.374      8355.560    1776.440
     1882.862      8435.822    1734.000      1919.383      8436.629    1769.865
     2019.210      8516.655    1732.380      2065.606      8517.883    1772.709
     2156.826      8597.478    1731.979      2203.919      8598.948    1768.575
     2298.374      8678.400    1733.134      2350.546      8680.311    1769.255
     2445.897      8759.574    1735.252      2495.956      8761.723    1766.252
     2597.214      8841.030    1736.012      2644.770      8843.426    1762.724
     2741.064      8922.244    1730.253      2797.272      8925.582    1759.541
     2877.711      9003.065    1721.094      2945.974      9007.913    1754.040
     3002.902      9082.815    1710.518      3089.640      9090.504    1747.974
     3130.512      9161.897    1704.045      3233.214      9174.107    1749.932
     3272.440      9242.151    1705.594      3369.011      9257.278    1750.175
     3413.917      9322.213    1707.034      3497.027      9339.121    1746.791
     3550.214      9400.730    1705.733      3631.088      9421.872    1747.250
     3690.616      9479.660    1706.914      3762.424      9503.509    1747.358
     3831.545      9558.284    1710.525      3914.249      9592.876    1760.116
     3970.845      9635.188    1714.866      4048.688      9676.668    1763.802
     4110.106      9710.725    1719.557      4176.957      9756.037    1764.954
     4251.485      9787.068    1727.329      4316.686      9842.016    1776.851
     4395.340      9866.087    1738.524      4464.095      9936.311    1801.403
     4536.294      9943.544    1749.869      4586.029     10003.073    1809.047
     4670.448     10012.151    1758.348      4709.265     10066.446    1817.471
     4793.452     10072.961    1765.767      4904.743     10226.388    1922.654
     5006.492     10249.945    1893.542      5048.687     10301.195    1950.154
     5141.187     10319.421    1910.298      5182.617     10363.566    1959.614
     5266.009     10382.388    1913.473      5308.229     10423.344    1954.761
     5393.092     10450.346    1916.749      5436.600     10490.066    1951.917
     5526.918     10525.480    1921.824      5572.268     10565.355    1956.087
     5660.206     10600.477    1921.759      5710.295     10643.485    1963.123
     5810.068     10689.685    1931.735      5847.932     10721.574    1968.084
     5954.635     10774.253    1935.879      5987.283     10801.280    1971.676
     6099.206     10858.745    1939.958      6131.688     10885.247    1975.889