NOECHO

-- =============================================================================
-- 
-- Exported from Reek_base_sim
-- 
-- Exported by user asny from RMS11 at 2020-02-19 16:27:34
-- 
-- =============================================================================

MAPUNITS
'METRES  ' /

MAPAXES
456514.895 5939173.621
456514.895 5927115.548
467218.219 5927115.548 /

GRIDUNIT
'METRES  ' '        ' /

SPECGRID
  40  64  14   1  F  /

GDORIENT
INC INC INC DOWN RIGHT /

COORD
        0.000      8808.111    1737.355         0.144      8807.797    1772.658
      140.001      8889.144    1738.743       140.810      8888.854    1773.418
      279.901      8970.170    1741.138       281.649      8969.882    1777.554
      419.664      9051.177    1743.015       422.757      9050.920    1781.273
      559.219      9132.170    1743.412       563.912      9131.993    1779.479
      698.554      9213.143    1743.371       704.828      9213.085    1774.604
      838.051      9294.097    1744.383       846.781      9294.189    1774.074
      977.450      9375.037    1744.516       988.660      9375.328    1773.184
     1115.939      9455.924    1742.011      1128.729      9456.433    1769.616
     1254.612      9536.775    1739.694      1270.180      9537.605    1770.598
     1392.506      9617.530    1736.470      1412.742      9618.892    1774.175
     1530.728      9698.235    1736.202      1554.725      9700.209    1776.344
     1668.361      9778.807    1736.936      1695.603      9781.496    1776.141
     1805.668      9859.222    1737.523      1836.812      9862.881    1776.366
     1944.604      9939.699    1739.838      1979.624      9944.586    1778.859
     2082.326     10019.847    1740.636      2121.003     10026.264    1780.038
     2219.285     10099.601    1740.181      2261.700     10107.978    1780.860
     2358.126     10179.442    1741.525      2402.338     10189.823    1782.379
     2498.767     10259.524    1745.465      2542.376     10271.638    1784.523
     2639.394     10339.475    1750.904      2684.643     10354.254    1789.826
     2780.507     10419.469    1756.751      2825.801     10436.734    1794.549
     2920.885     10499.083    1760.478      2967.205     10519.451    1797.811
     3060.582     10578.255    1761.545      3108.988     10602.470    1800.145
     3200.766     10657.573    1761.237      3248.954     10684.583    1801.018
     3341.458     10737.190    1760.591      3386.921     10765.328    1800.820
     3479.717     10815.238    1759.288      3524.149     10845.228    1801.400
     3618.735     10893.682    1760.908      3662.579     10925.606    1805.384
     3758.637     10972.790    1765.577      3802.956     11007.247    1814.499
     3899.382     11052.722    1773.292      3942.383     11088.039    1825.945
     4040.266     11133.022    1786.779      4081.696     11168.558    1840.738
     4184.692     11216.728    1811.301      4225.936     11253.268    1863.395
     4330.337     11301.939    1836.324      4375.300     11342.650    1890.837
     4467.706     11379.871    1847.941      4517.070     11425.143    1908.519
     4611.896     11464.172    1868.763      4657.941     11506.676    1926.609
     4760.488     11552.646    1897.773      4800.164     11589.399    1946.276
     4903.010     11635.547    1915.667      4941.090     11670.926    1959.650
     5041.845     11715.032    1922.840      5077.221     11748.015    1962.682
     5180.246     11794.093    1924.234      5209.675     11821.656    1960.133
     5321.021     11875.376    1926.291      5347.072     11899.901    1962.596
     5462.297     11957.126    1930.001      5485.804     11979.399    1966.985
     5603.216     12038.542    1929.796      5623.671     12058.073    1966.779
       79.447      8670.475    1737.392        79.622      8670.166    1772.703
      219.478      8751.507    1738.780       220.301      8751.224    1773.476
      359.414      8832.531    1741.163       361.170      8832.252    1777.571
      499.231      8913.538    1743.044       502.343      8913.292    1781.263
      638.884      8994.531    1743.457       643.557      8994.370    1779.490
      778.331      9075.509    1743.425       784.590      9075.466    1774.647
      917.959      9156.471    1744.432       926.736      9156.578    1774.088
     1057.457      9237.423    1744.548      1068.709      9237.726    1773.181
     1196.029      9318.323    1742.083      1208.646      9318.828    1769.646
     1334.799      9399.193    1739.717      1349.792      9399.983    1770.609
     1472.794      9479.972    1736.546      1491.904      9481.231    1774.170
     1611.208      9560.718    1736.292      1633.545      9562.506    1776.344
     1749.255      9641.363    1736.984      1774.421      9643.771    1776.146
     1887.315      9721.914    1737.626      1915.885      9725.158    1776.365
     2026.936      9802.554    1739.925      2058.896      9806.859    1778.854
     2165.228      9882.900    1740.701      2200.952      9888.622    1780.036
     2303.129      9962.986    1740.318      2343.058      9970.607    1780.866
     2442.985     10043.256    1741.770      2485.370     10052.893    1782.397
     2584.577     10123.848    1745.800      2627.178     10135.338    1784.702
     2725.721     10204.292    1751.264      2770.907     10218.665    1790.010
     2867.323     10284.851    1757.105      2913.339     10301.989    1794.771
     3008.203     10365.118    1760.660      3054.882     10385.249    1798.004
     3148.406     10445.019    1761.682      3195.765     10468.333    1800.274
     3288.840     10524.970    1761.289      3334.699     10550.346    1801.140
     3429.859     10605.278    1760.567      3472.284     10631.264    1800.912
     3568.335     10683.976    1759.366      3609.604     10711.599    1801.674
     3707.148     10762.757    1761.198      3747.766     10792.136    1805.842
     3845.870     10841.390    1765.999      3886.735     10873.001    1815.024
     3984.696     10920.089    1773.746      4023.837     10952.110    1826.235
     4124.044     10999.294    1787.468      4161.042     11030.926    1840.873
     4266.971     11081.794    1811.908      4303.061     11113.668    1863.014
     4410.647     11165.274    1836.443      4450.318     11201.076    1889.961
     4547.741     11242.975    1848.002      4592.152     11283.552    1908.034
     4691.865     11327.210    1868.897      4733.204     11365.194    1926.084
     4839.453     11414.722    1897.666      4875.160     11447.609    1945.510
     4981.388     11497.065    1915.550      5017.349     11530.252    1959.327
     5120.559     11576.861    1922.821      5154.824     11608.571    1962.717
     5259.717     11656.639    1924.249      5288.420     11683.300    1960.299
     5401.179     11738.556    1926.330      5426.574     11762.253    1962.726
     5542.581     11820.422    1930.022      5565.815     11842.228    1967.081
     5683.106     11901.465    1929.814      5703.707     11920.939    1966.874
      158.886      8532.882    1735.224       159.094      8532.519    1770.400
      298.853      8613.912    1736.035       299.752      8613.599    1769.878
      438.741      8694.923    1738.778       440.771      8694.608    1776.401
      578.524      8775.918    1740.962       582.246      8775.642    1781.626
      717.997      8856.907    1740.593       723.438      8856.744    1778.274
      857.284      8937.874    1740.713       864.046      8937.851    1771.095
      996.757      9018.827    1741.860      1007.041      9018.975    1773.358
     1136.341      9099.775    1742.702      1148.855      9100.124    1771.850
     1274.031      9180.638    1739.065      1287.106      9181.157    1765.536
     1413.807      9261.553    1739.211      1429.331      9262.345    1769.162
     1551.302      9342.313    1735.621      1572.111      9343.618    1774.274
     1689.376      9423.044    1734.950      1712.633      9424.794    1774.884
     1828.082      9503.762    1736.531      1853.383      9506.020    1774.755
     1965.375      9584.266    1735.751      1993.249      9587.200    1772.781
     2105.937      9665.033    1738.920      2137.152      9668.919    1776.458
     2243.829      9745.367    1738.611      2279.011      9750.578    1776.915
     2380.577      9825.299    1736.411      2420.595      9832.381    1775.997
     2520.316      9905.530    1737.332      2564.434      9914.874    1777.648
     2662.496      9986.212    1741.378      2704.412      9996.803    1777.056
     2802.743     10066.343    1745.120      2848.825     10080.169    1781.546
     2946.794     10147.647    1751.783      2995.120     10164.758    1788.117
     3088.188     10228.130    1755.070      3136.938     10248.288    1791.584
     3228.375     10308.050    1755.980      3275.293     10330.385    1792.906
     3367.659     10387.387    1754.940      3415.195     10413.019    1795.685
     3509.531     10468.125    1755.549      3551.119     10493.115    1794.511
     3647.048     10546.191    1753.738      3688.969     10573.867    1795.919
     3786.068     10625.065    1756.223      3825.642     10653.420    1798.846
     3924.099     10703.136    1761.043      3965.573     10735.019    1810.164
     4063.170     10781.990    1770.771      4102.094     10813.705    1822.824
     4198.951     10858.140    1781.174      4235.917     10889.646    1835.037
     4344.626     10942.959    1810.805      4377.351     10971.762    1858.241
     4493.883     11031.431    1844.307      4530.904     11064.694    1895.432
     4624.641     11103.440    1847.776      4668.393     11143.182    1907.692
     4768.093     11187.040    1867.788      4808.717     11224.073    1923.903
     4921.986     11280.238    1904.382      4957.002     11312.158    1950.123
     5062.406     11361.170    1919.288      5098.104     11393.701    1961.120
     5197.097     11436.888    1921.086      5231.981     11468.698    1960.211
     5334.975     11515.506    1920.634      5363.658     11541.708    1955.131
     5476.815     11597.740    1922.502      5503.423     11622.116    1958.526
     5618.804     11680.112    1926.586      5643.993     11703.288    1963.723
     5759.518     11761.308    1926.372      5782.039     11782.153    1963.475
      238.345      8395.254    1735.566       238.605      8394.799    1773.681
      378.222      8476.323    1732.826       379.427      8475.890    1773.768
      518.042      8557.322    1735.768       520.546      8556.930    1777.377
      657.841      8638.300    1739.047       661.646      8638.024    1775.961
      796.848      8719.293    1736.597       802.594      8719.132    1771.813
      935.919      8800.244    1737.163       943.705      8800.230    1768.353
     1074.828      8881.176    1737.666      1086.195      8881.349    1769.047
     1214.614      8962.116    1739.851      1229.013      8962.517    1770.364
     1354.637      9043.064    1741.580      1372.184      9043.739    1774.038
     1493.628      9123.961    1740.873      1513.257      9124.915    1775.295
     1635.536      9205.005    1745.301      1657.182      9206.279    1781.911
     1772.195      9285.715    1742.026      1795.348      9287.334    1778.621
     1909.024      9366.348    1740.087      1934.230      9368.423    1775.555
     2043.471      9446.645    1735.159      2068.596      9449.072    1766.605
     2183.380      9527.340    1737.204      2212.044      9530.608    1770.045
     2322.223      9607.823    1737.391      2356.201      9612.432    1772.753
     2459.418      9687.895    1734.881      2497.418      9694.069    1770.323
     2601.281      9768.586    1737.050      2649.463      9777.994    1777.707
     2742.804      9849.194    1739.695      2790.504      9860.374    1776.296
     2880.395      9928.668    1740.156      2933.842      9943.658    1777.914
     3020.289     10008.448    1742.344      3067.197     10024.118    1774.076
     3161.846     10088.628    1744.795      3212.301     10108.523    1779.622
     3309.357     10171.523    1750.849      3356.792     10193.305    1786.292
     3453.687     10253.585    1754.919      3501.691     10278.834    1794.581
     3591.200     10332.101    1753.451      3635.539     10358.343    1793.339
     3730.569     10411.482    1754.747      3776.470     10441.563    1798.598
     3868.594     10489.843    1757.461      3912.041     10520.919    1801.683
     4008.271     10569.323    1765.673      4052.295     10603.243    1815.311
     4144.372     10645.955    1774.159      4184.651     10678.965    1825.765
     4286.316     10727.472    1795.510      4324.066     10759.847    1848.613
     4434.441     10814.774    1829.530      4466.526     10843.109    1875.196
     4573.054     10893.915    1848.577      4608.737     10925.985    1897.570
     4707.303     10969.126    1857.643      4747.044     11005.130    1911.197
     4857.769     11059.098    1887.291      4892.592     11090.676    1933.485
     5007.661     11148.563    1916.306      5041.085     11178.799    1956.816
     5141.121     11223.178    1921.010      5172.566     11251.542    1955.401
     5272.398     11295.874    1918.622      5307.650     11327.604    1956.085
     5414.737     11378.544    1923.010      5444.657     11405.453    1957.151
     5554.710     11459.083    1922.767      5584.320     11485.730    1960.388
     5697.090     11541.785    1927.093      5725.320     11567.247    1965.514
     5837.896     11623.057    1926.864      5863.256     11646.032    1965.306
      317.814      8257.609    1736.145       318.088      8257.131    1771.505
      457.772      8338.666    1734.940       459.122      8338.173    1776.408
      597.665      8419.670    1737.353       600.421      8419.236    1778.574
      737.069      8500.688    1736.114       741.638      8500.361    1775.608
      875.784      8581.677    1733.535       882.804      8581.489    1771.729
     1014.837      8662.615    1735.153      1024.760      8662.604    1770.786
     1153.479      8743.538    1735.548      1167.192      8743.747    1769.801
     1291.917      8824.436    1735.504      1309.267      8824.904    1768.853
     1431.502      8905.354    1737.317      1453.331      8906.153    1773.740
     1572.658      8986.337    1741.048      1595.635      8987.383    1776.901
     1715.042      9067.403    1746.225      1738.946      9068.708    1781.925
     1854.127      9148.295    1746.966      1881.026      9150.023    1784.697
     1991.167      9229.007    1744.990      2022.785      9231.379    1784.894
     2126.963      9309.523    1741.295      2156.815      9312.141    1775.195
     2264.209      9390.041    1739.508      2295.851      9393.307    1772.700
     2403.758      9470.693    1739.443      2441.118      9475.277    1775.115
     2541.153      9550.939    1736.089      2587.420      9557.750    1775.344
     2682.231      9631.594    1736.457      2732.974      9640.600    1774.866
     2822.247      9711.967    1736.924      2877.920      9723.899    1774.592
     2955.641      9790.462    1733.724      3012.366      9805.140    1768.772
     3093.348      9869.385    1733.304      3150.073      9887.064    1767.201
     3237.208      9950.014    1735.961      3298.878      9973.007    1774.611
     3384.396     10032.316    1741.031      3440.973     10057.252    1780.652
     3531.005     10115.126    1747.296      3586.544     10143.590    1791.003
     3672.548     10195.812    1750.741      3722.310     10224.913    1793.241
     3811.996     10275.306    1753.641      3860.033     10306.757    1796.613
     3950.291     10353.920    1758.121      4003.473     10392.228    1808.433
     4092.617     10435.550    1770.738      4136.354     10469.712    1816.744
     4226.870     10510.797    1779.972      4269.131     10546.130    1830.355
     4378.165     10600.699    1815.475      4420.722     10638.008    1870.465
     4521.701     10684.411    1843.976      4558.531     10717.444    1894.165
     4648.006     10752.546    1847.777      4688.307     10789.086    1902.115
     4791.563     10836.244    1871.436      4828.617     10869.883    1919.513
     4949.630     10933.086    1909.801      4982.191     10962.540    1949.671
     5088.138     11012.179    1921.855      5122.156     11042.792    1959.279
     5212.779     11078.898    1916.168      5248.195     11110.594    1951.800
     5345.812     11153.259    1914.908      5381.642     11185.163    1950.788
     5493.985     11241.110    1924.837      5527.644     11270.962    1961.422
     5633.903     11321.617    1924.823      5669.064     11352.729    1967.193
     5776.730     11404.690    1929.397      5809.185     11433.401    1970.738
     5917.573     11485.999    1929.155      5946.838     11511.947    1970.624
      397.247      8120.029    1730.953       397.542      8119.514    1765.229
      537.246      8201.032    1733.501       538.686      8200.505    1773.715
      677.102      8282.045    1735.187       680.037      8281.585    1774.949
      816.715      8363.047    1736.215       821.451      8362.711    1773.024
      955.719      8444.036    1735.357       963.202      8443.839    1771.965
     1093.642      8524.990    1732.781      1104.075      8524.979    1766.982
     1231.949      8605.902    1733.102      1246.379      8606.114    1766.100
     1371.319      8686.821    1735.300      1391.836      8687.347    1771.152
     1510.513      8767.733    1736.661      1533.169      8768.512    1770.491
     1649.880      8848.644    1738.216      1675.052      8849.706    1772.691
     1789.656      8929.561    1740.218      1817.362      8930.945    1776.152
     1931.743      9010.599    1745.246      1963.709      9012.462    1784.292
     2070.326      9091.426    1745.279      2106.248      9093.857    1784.985
     2208.517      9172.178    1743.927      2244.004      9174.972    1779.379
     2348.294      9253.012    1743.651      2387.814      9256.660    1780.119
     2487.598      9333.762    1741.795      2530.077      9338.408    1777.574
     2621.878      9413.788    1735.008      2671.044      9420.235    1771.959
     2763.341      9494.584    1734.564      2818.645      9503.349    1771.264
     2896.553      9573.773    1729.997      2960.043      9585.977    1767.209
     3028.669      9651.962    1725.891      3096.066      9667.777    1761.897
     3167.963      9731.108    1725.427      3230.549      9749.060    1758.151
     3312.144      9811.465    1726.859      3372.059      9832.364    1760.683
     3457.002      9892.276    1729.473      3521.720      9919.452    1771.708
     3604.838      9974.988    1736.597      3661.239     10003.061    1778.635
     3749.670     10057.031    1743.424      3804.231     10088.597    1787.228
     3891.604     10137.877    1749.728      3946.691     10174.136    1795.786
     4028.859     10215.622    1754.802      4086.464     10257.864    1805.387
     4172.390     10298.104    1769.618      4219.023     10335.589    1815.434
     4311.889     10377.700    1786.706      4358.112     10417.785    1838.884
     4450.582     10456.783    1808.674      4512.622     10513.444    1883.052
     4599.902     10546.062    1843.914      4637.372     10580.926    1893.224
     4730.061     10617.512    1854.918      4769.666     10654.385    1907.397
     4884.875     10711.724    1895.134      4919.684     10743.710    1938.412
     5031.274     10797.896    1917.681      5062.096     10825.842    1952.186
     5153.460     10862.235    1911.478      5191.662     10896.523    1949.542
     5282.635     10933.118    1910.550      5326.021     10971.717    1950.738
     5425.396     11016.175    1917.406      5467.436     11053.279    1957.304
     5569.634     11100.514    1922.697      5608.862     11134.887    1963.808
     5710.721     11182.072    1923.871      5749.413     11215.781    1968.884
     5855.037     11266.422    1929.836      5890.366     11297.099    1972.643
     5996.142     11347.961    1929.541      6027.981     11375.600    1972.511
      476.652      7982.495    1722.735       476.930      7982.010    1752.298
      616.460      8063.491    1724.712       617.757      8063.021    1757.828
      756.208      8144.470    1728.427       759.171      8144.012    1765.040
      895.924      8225.435    1732.388       901.392      8225.053    1770.955
     1035.282      8306.406    1734.483      1044.378      8306.170    1774.918
     1173.116      8387.366    1732.302      1185.355      8387.350    1769.321
     1310.984      8468.278    1731.797      1326.556      8468.493    1764.597
     1448.434      8549.154    1731.020      1469.837      8549.668    1765.180
     1587.082      8630.043    1732.189      1611.051      8630.804    1764.328
     1727.017      8710.968    1735.142      1755.325      8712.059    1769.258
     1864.602      8791.784    1735.272      1897.932      8793.287    1772.844
     2005.706      8872.739    1739.220      2040.001      8874.529    1775.629
     2147.939      8953.762    1743.157      2190.831      8956.346    1784.317
     2288.986      9034.723    1743.937      2331.688      9037.703    1780.915
     2433.331      9115.961    1745.895      2474.929      9119.346    1779.108
     2574.040      9196.962    1743.202      2619.802      9201.351    1776.792
     2705.222      9276.896    1733.239      2760.585      9283.253    1769.795
     2843.129      9357.335    1729.539      2906.455      9366.145    1765.813
     2976.947      9436.864    1725.138      3046.472      9448.615    1759.769
     3104.697      9514.451    1718.750      3178.470      9529.854    1752.901
     3243.524      9593.375    1717.477      3313.734      9611.618    1749.790
     3391.957      9674.771    1720.066      3457.262      9695.802    1753.299
     3531.327      9753.277    1719.026      3596.616      9779.124    1758.427
     3672.833      9832.263    1721.507      3732.582      9860.943    1763.141
     3818.296      9913.425    1728.698      3880.099      9948.734    1775.078
     3968.155      9998.373    1741.791      4026.019     10036.823    1787.315
     4103.237     10073.981    1746.250      4165.648     10121.107    1797.672
     4247.333     10156.421    1761.519      4300.493     10201.226    1811.000
     4395.934     10243.989    1788.147      4440.173     10284.685    1837.144
     4523.516     10312.601    1797.766      4597.771     10384.805    1886.690
     4686.733     10416.278    1851.034      4723.173     10452.376    1897.803
     4827.122     10497.247    1877.118      4863.257     10532.563    1924.031
     4978.021     10587.707    1912.816      5007.407     10615.443    1947.960
     5107.354     10657.766    1916.577      5139.631     10687.307    1950.299
     5229.409     10721.881    1911.390      5273.345     10761.312    1951.647
     5361.136     10795.085    1912.468      5410.243     10838.564    1954.835
     5503.026     10877.374    1917.547      5552.181     10920.420    1962.120
     5645.395     10960.082    1920.485      5689.541     10998.343    1965.549
     5788.345     11043.273    1923.465      5828.065     11077.383    1968.801
     5933.300     11128.140    1929.941      5969.898     11159.358    1972.748
     6074.826     11210.043    1929.630      6107.695     11237.986    1972.617
      556.102      7844.885    1719.091       556.408      7844.350    1749.718
      695.854      7925.881    1720.860       697.154      7925.420    1751.353
      835.271      8006.898    1721.668       838.040      8006.479    1752.954
      974.505      8087.865    1724.552       980.180      8087.478    1761.058
     1113.583      8168.809    1727.964      1123.349      8168.558    1767.402
     1253.126      8249.743    1732.573      1267.153      8249.717    1770.936
     1390.562      8330.665    1731.112      1407.646      8330.879    1764.058
     1526.190      8411.517    1727.822      1549.028      8412.017    1761.240
     1664.459      8492.398    1728.911      1691.324      8493.169    1761.602
     1802.696      8573.270    1730.338      1832.909      8574.307    1762.894
     1940.072      8654.085    1730.973      1978.582      8655.616    1769.301
     2078.861      8734.922    1732.670      2124.286      8736.996    1774.909
     2220.400      8815.864    1735.908      2267.999      8818.360    1775.873
     2366.373      8897.072    1739.973      2412.172      8899.843    1774.651
     2516.806      8978.684    1744.169      2560.681      8981.763    1774.794
     2659.097      9059.865    1740.307      2703.805      9063.538    1769.255
     2793.258      9140.345    1730.959      2849.018      9145.798    1763.594
     2926.542      9220.507    1723.742      2994.420      9228.604    1757.232
     3055.337      9299.616    1716.786      3133.789      9311.095    1750.261
     3189.059      9378.644    1712.936      3271.069      9393.630    1747.017
     3326.987      9457.733    1711.590      3414.313      9477.923    1747.877
     3469.393      9537.436    1711.490      3551.983      9561.558    1749.774
     3607.637      9615.411    1709.934      3684.413      9643.579    1752.446
     3746.212      9692.646    1710.615      3811.695      9722.496    1752.438
     3889.739      9771.732    1716.206      3953.565      9807.381    1760.832
     4035.988      9852.979    1726.136      4093.958      9891.826    1769.476
     4170.322      9926.175    1730.146      4231.089      9973.837    1778.072
     4317.792     10009.938    1746.573      4373.209     10059.802    1796.675
     4459.796     10090.474    1763.035      4505.176     10135.862    1813.570
     4592.787     10162.692    1776.364      4684.567     10261.312    1891.656
     4718.283     10227.875    1782.943      4819.674     10338.672    1912.349
     4926.633     10382.169    1896.945      4963.794     10421.241    1944.958
     5066.296     10460.215    1919.388      5096.638     10490.110    1955.210
     5184.196     10518.379    1912.803      5223.031     10554.590    1951.993
     5307.631     10583.554    1910.603      5361.271     10631.842    1957.038
     5443.991     10660.907    1915.992      5497.674     10708.192    1959.956
     5584.019     10741.541    1919.812      5630.087     10781.516    1960.015
     5725.062     10823.080    1921.684      5769.173     10860.849    1965.687
     5869.888     10907.839    1926.807      5910.181     10941.916    1972.248
     6014.266     10992.155    1932.405      6051.478     11023.314    1974.949
     6156.023     11074.239    1932.119      6189.288     11101.917    1974.880
      635.556      7707.267    1715.766       635.860      7706.735    1744.954
      775.147      7788.301    1715.214       776.573      7787.811    1745.988
      914.426      7869.307    1716.806       917.451      7868.864    1748.036
     1053.364      7950.274    1719.424      1058.324      7949.944    1748.508
     1191.820      8031.215    1721.903      1201.175      8030.976    1756.163
     1330.432      8112.128    1725.426      1345.450      8112.089    1762.365
     1468.984      8193.045    1727.814      1489.588      8193.267    1764.020
     1607.040      8273.954    1728.669      1633.223      8274.458    1763.940
     1747.144      8354.912    1731.598      1779.438      8355.717    1767.656
     1883.031      8435.758    1730.214      1916.816      8436.748    1763.495
     2017.276      8516.510    1728.033      2061.908      8518.006    1768.388
     2155.214      8597.338    1729.051      2202.421      8599.141    1768.460
     2293.643      8678.138    1729.392      2342.838      8680.293    1766.444
     2439.913      8759.281    1732.351      2491.972      8761.916    1767.770
     2595.628      8841.051    1737.321      2652.618      8844.397    1773.088
     2736.231      8922.079    1729.980      2794.262      8926.039    1763.790
     2876.000      9003.080    1722.092      2942.109      9008.340    1756.641
     3003.682      9082.955    1711.454      3082.591      9090.505    1746.167
     3135.250      9162.583    1705.067      3222.074      9173.252    1741.286
     3277.809      9243.239    1705.652      3366.492      9257.204    1740.862
     3412.905      9322.366    1704.598      3506.251      9341.221    1741.233
     3548.440      9400.715    1703.302      3637.879      9423.925    1742.069
     3689.579      9479.798    1704.541      3758.716      9502.748    1739.842
     3825.584      9556.327    1704.563      3891.882      9584.149    1743.189
     3963.101      9631.776    1706.122      4035.605      9670.400    1753.028
     4107.078      9709.808    1713.208      4168.044      9750.664    1756.491
     4247.677      9785.829    1720.754      4304.094      9831.884    1764.028
     4397.421      9870.820    1737.076      4449.741      9921.430    1784.271
     4536.466      9947.304    1747.345      4577.459      9992.968    1794.634
     4670.585     10017.042    1756.247      4708.932     10066.839    1810.766
     4795.264     10079.804    1763.736      4901.671     10219.339    1909.133
     5005.658     10248.830    1886.875      5043.557     10293.116    1937.379
     5141.486     10320.370    1906.190      5177.699     10357.880    1949.301
     5265.443     10383.103    1908.606      5310.571     10426.101    1953.486
     5395.215     10453.651    1913.840      5445.699     10499.245    1956.276
     5529.834     10529.314    1918.893      5580.526     10573.620    1959.155
     5664.372     10605.162    1919.505      5716.324     10649.666    1963.687
     5809.212     10689.883    1926.071      5856.845     10730.031    1972.499
     5954.156     10774.622    1932.258      5993.908     10807.640    1976.111
     6097.752     10858.191    1936.417      6134.781     10888.562    1977.926