NOECHO

-- =============================================================================
-- 
-- Exported from Reek_base_sim
-- 
-- Exported by user asny from RMS11 at 2020-02-19 16:53:40
-- 
-- =============================================================================

MAPUNITS
'METRES  ' /

MAPAXES
456514.865 5939178.917
456514.865 5927115.548
467218.109 5927115.548 /

GRIDUNIT
'METRES  ' '        ' /

SPECGRID
  40  64  14   1  F  /

GDORIENT
INC INC INC DOWN RIGHT /

COORD
        0.000      8808.163    1734.988         0.197      8807.746    1770.941
      139.964      8889.191    1735.427       140.903      8888.821    1767.737
      279.833      8970.202    1737.182       281.728      8969.868    1767.036
      419.706      9051.183    1740.671       423.178      9050.889    1771.403
      559.665      9132.151    1744.225       564.744      9131.979    1772.367
      699.255      9213.123    1745.209       706.535      9213.102    1773.262
      838.674      9294.080    1745.948       848.440      9294.255    1774.522
      977.880      9375.014    1746.073       990.358      9375.436    1775.283
     1116.492      9455.899    1744.147      1131.541      9456.610    1773.116
     1254.651      9536.717    1741.035      1273.846      9537.871    1774.183
     1392.661      9617.472    1737.841      1416.782      9619.238    1776.552
     1530.694      9698.157    1735.949      1557.007      9700.458    1773.917
     1669.471      9778.840    1736.526      1698.240      9781.811    1772.818
     1807.786      9859.391    1736.625      1838.117      9863.081    1770.702
     1944.854      9939.632    1735.754      1976.622      9944.208    1768.494
     2083.209     10019.856    1737.009      2118.235     10025.863    1771.313
     2222.217     10099.985    1739.326      2258.214     10107.372    1774.629
     2362.345     10180.163    1743.436      2398.982     10189.158    1780.807
     2503.650     10260.531    1750.195      2543.146     10272.069    1791.540
     2645.375     10341.005    1758.096      2686.836     10355.291    1801.377
     2786.045     10421.075    1763.635      2828.311     10438.056    1806.727
     2925.019     10500.283    1764.835      2969.986     10521.055    1807.896
     3062.850     10578.647    1762.893      3110.498     10603.563    1806.992
     3201.960     10657.412    1760.839      3249.138     10684.920    1804.623
     3343.009     10737.269    1759.972      3386.234     10765.017    1801.217
     3482.669     10816.262    1758.489      3524.220     10845.305    1800.139
     3621.669     10894.745    1758.729      3661.616     10924.852    1801.597
     3761.650     10974.001    1762.536      3802.936     11007.206    1811.186
     3903.197     11054.743    1770.984      3940.280     11086.208    1819.564
     4043.072     11134.332    1783.842      4080.045     11167.031    1834.581
     4188.023     11218.759    1810.561      4228.810     11255.917    1863.838
     4334.241     11304.764    1838.264      4378.208     11345.564    1892.288
     4469.080     11380.390    1848.360      4516.609     11424.904    1906.792
     4610.663     11462.414    1867.166      4658.405     11507.256    1926.739
     4756.627     11548.615    1893.327      4801.880     11591.135    1947.605
     4899.044     11631.496    1910.325      4943.103     11672.918    1960.604
     5038.684     11711.764    1917.104      5080.667     11751.306    1966.049
     5179.212     11792.856    1919.741      5216.330     11827.925    1967.958
     5321.224     11875.346    1923.244      5354.511     11906.936    1972.354
     5463.237     11957.840    1928.301      5492.080     11985.373    1976.173
     5604.071     12039.209    1928.021      5629.191     12063.369    1976.029
       79.446      8670.527    1735.011        79.683      8670.111    1770.923
      219.443      8751.552    1735.455       220.410      8751.185    1767.749
      359.384      8832.555    1737.223       361.308      8832.229    1767.061
      499.379      8913.534    1740.722       502.887      8913.255    1771.390
      639.507      8994.505    1744.260       644.584      8994.355    1772.385
      779.317      9075.491    1745.245       786.511      9075.494    1773.276
      918.899      9156.462    1745.981       928.570      9156.661    1774.544
     1058.182      9237.412    1746.100      1070.549      9237.850    1775.275
     1196.808      9318.308    1744.179      1211.473      9319.016    1773.122
     1335.051      9399.146    1741.066      1353.622      9400.268    1774.187
     1473.170      9479.925    1737.890      1496.631      9481.633    1776.555
     1611.394      9560.653    1736.034      1636.962      9562.856    1773.901
     1750.623      9641.415    1736.582      1778.396      9644.222    1772.826
     1889.664      9722.100    1736.680      1918.591      9725.527    1770.673
     2027.709      9802.561    1735.886      2057.837      9806.773    1768.501
     2166.837      9883.036    1737.165      2200.300      9888.599    1771.362
     2306.450      9963.453    1739.563      2341.013      9970.331    1774.714
     2446.756     10043.888    1743.745      2481.972     10052.286    1781.002
     2587.942     10124.468    1750.573      2626.303     10135.377    1791.813
     2729.609     10205.183    1758.413      2770.953     10219.087    1801.585
     2870.788     10285.735    1763.846      2913.238     10302.434    1806.853
     3010.579     10365.650    1764.907      3054.501     10385.572    1807.973
     3149.288     10444.854    1762.895      3194.294     10468.027    1807.036
     3289.176     10524.483    1760.925      3332.738     10549.562    1804.643
     3430.706     10605.085    1759.953      3470.810     10630.555    1801.249
     3570.933     10684.932    1758.514      3609.845     10711.899    1800.322
     3709.538     10763.597    1758.885      3747.249     10791.830    1802.058
     3848.209     10842.226    1762.959      3887.137     10873.374    1811.778
     3988.090     10921.869    1771.383      4022.554     10950.999    1819.928
     4127.043     11000.842    1784.599      4160.708     11030.528    1835.001
     4270.823     11084.321    1811.358      4306.668     11116.891    1863.475
     4414.618     11168.132    1838.381      4453.272     11203.902    1891.469
     4548.903     11243.269    1848.393      4591.132     11282.683    1906.120
     4690.266     11325.093    1867.198      4732.689     11364.760    1925.922
     4835.649     11410.735    1893.253      4875.949     11448.378    1946.637
     4977.601     11493.170    1910.241      5018.649     11531.491    1960.293
     5117.820     11573.986    1917.094      5157.877     11611.414    1966.049
     5259.313     11655.987    1919.765      5294.895     11689.307    1968.080
     5402.374     11739.456    1923.332      5434.057     11769.233    1972.493
     5544.460     11822.017    1928.325      5572.151     11848.173    1976.285
     5684.471     11902.611    1928.041      5709.372     11926.297    1976.139
      158.885      8532.935    1733.754       159.198      8532.388    1772.818
      298.828      8613.953    1733.705       299.963      8613.520    1767.012
      438.651      8694.955    1734.461       440.884      8694.587    1765.136
      578.562      8775.918    1737.604       582.920      8775.600    1771.663
      718.708      8856.875    1741.549       723.992      8856.752    1768.129
      858.500      8937.850    1742.927       865.913      8937.893    1769.343
      998.158      9018.818    1744.114      1007.057      9019.037    1768.240
     1137.432      9099.763    1744.508      1151.062      9100.287    1774.275
     1275.614      9180.637    1742.470      1290.753      9181.393    1770.607
     1414.132      9261.491    1740.460      1432.875      9262.627    1771.812
     1551.195      9342.203    1736.021      1577.260      9344.067    1775.974
     1688.593      9422.866    1733.205      1715.729      9425.124    1770.970
     1828.799      9503.716    1734.853      1858.060      9506.533    1771.055
     1968.239      9584.458    1734.992      1996.929      9587.662    1767.401
     2105.983      9664.913    1733.388      2135.208      9668.735    1764.064
     2245.393      9745.453    1734.452      2279.905      9750.804    1768.461
     2384.378      9825.777    1735.852      2419.071      9832.220    1769.378
     2524.890      9906.245    1739.997      2560.779      9914.261    1775.510
     2666.376      9986.875    1746.569      2707.705      9997.944    1787.636
     2808.409     10067.669    1753.682      2851.463     10081.392    1794.939
     2950.951     10148.707    1759.209      2995.354     10165.375    1800.754
     3089.875     10228.305    1758.805      3132.736     10246.993    1799.188
     3229.218     10307.828    1757.160      3274.397     10330.352    1801.331
     3368.755     10387.265    1754.976      3410.833     10410.880    1797.780
     3510.031     10467.659    1754.050      3549.247     10492.090    1794.280
     3651.010     10547.978    1753.615      3689.948     10574.587    1794.451
     3787.736     10625.276    1752.505      3823.691     10651.929    1792.589
     3924.816     10702.568    1755.828      3966.962     10736.072    1807.487
     4066.563     10783.654    1768.353      4098.644     10810.659    1812.814
     4201.569     10859.138    1777.333      4235.359     10888.855    1827.708
     4348.523     10945.379    1809.829      4382.288     10975.983    1859.794
     4497.621     11034.065    1845.976      4532.123     11065.885    1894.801
     4625.180     11103.016    1847.654      4664.608     11139.629    1902.885
     4766.245     11184.577    1866.485      4808.208     11223.522    1925.097
     4917.701     11275.814    1900.050      4957.621     11312.722    1952.091
     5058.729     11357.382    1914.855      5097.394     11393.008    1960.557
     5195.069     11434.637    1916.841      5234.583     11470.982    1963.001
     5334.734     11514.948    1916.795      5371.673     11548.922    1964.018
     5478.263     11598.804    1920.143      5511.592     11629.508    1968.258
     5620.785     11681.729    1925.530      5650.687     11709.369    1972.478
     5760.909     11762.429    1925.229      5788.036     11787.640    1972.303
      238.340      8395.315    1733.835       238.725      8394.643    1773.955
      378.216      8476.357    1731.971       379.463      8475.868    1764.278
      517.922      8557.356    1732.000       520.430      8556.942    1762.714
      657.731      8638.303    1734.876       662.236      8637.990    1766.421
      797.584      8719.252    1737.891       804.399      8719.119    1768.883
      936.330      8800.199    1736.924       944.033      8800.271    1761.816
     1075.348      8881.119    1737.758      1084.730      8881.377    1760.985
     1214.963      8962.050    1740.061      1227.345      8962.548    1765.036
     1355.094      9043.005    1742.678      1371.784      9043.850    1771.541
     1494.367      9123.911    1742.548      1515.485      9125.181    1774.953
     1632.897      9204.748    1740.553      1657.957      9206.493    1775.629
     1769.891      9285.426    1736.938      1797.754      9287.647    1773.217
     1906.706      9366.010    1734.010      1934.746      9368.562    1766.347
     2046.145      9446.761    1733.868      2076.590      9449.938    1766.195
     2185.794      9527.472    1733.827      2217.068      9531.266    1764.891
     2325.725      9608.142    1734.757      2354.780      9612.304    1761.576
     2468.420      9689.190    1738.861      2503.938      9695.285    1770.231
     2607.182      9769.503    1740.939      2648.402      9778.039    1777.126
     2750.724      9850.794    1748.094      2791.025      9860.856    1783.189
     2890.926      9931.292    1751.780      2932.535      9943.743    1787.029
     3028.508     10010.721    1751.418      3070.342     10025.596    1786.736
     3166.959     10090.038    1749.823      3210.581     10108.233    1788.434
     3313.377     10172.811    1754.706      3359.827     10195.196    1798.800
     3455.088     10253.708    1755.561      3493.626     10274.832    1793.966
     3591.943     10331.767    1751.346      3633.232     10357.118    1792.008
     3734.794     10413.452    1754.067      3776.196     10441.547    1794.912
     3870.887     10490.513    1754.156      3915.373     10523.435    1800.615
     4007.067     10567.270    1758.398      4049.286     10600.904    1807.430
     4147.677     10647.524    1771.908      4179.880     10674.791    1814.351
     4291.191     10730.612    1795.493      4324.726     10760.297    1843.456
     4439.199     10818.178    1830.497      4468.611     10844.951    1873.154
     4575.799     10895.543    1849.326      4605.719     10923.171    1891.602
     4705.947     10966.922    1855.659      4740.677     10999.111    1903.944
     4855.397     11056.250    1886.512      4888.801     11087.100    1931.855
     5002.825     11143.673    1912.544      5037.343     11175.344    1954.674
     5132.907     11215.215    1912.844      5170.907     11249.861    1954.743
     5270.657     11293.824    1916.229      5307.829     11327.549    1956.604
     5415.699     11379.038    1922.520      5447.741     11408.021    1960.274
     5557.828     11461.593    1924.482      5588.369     11489.190    1964.599
     5698.547     11542.862    1926.967      5729.234     11570.623    1970.061
     5839.037     11623.907    1926.785      5866.705     11649.024    1969.845
      317.822      8257.646    1735.467       318.220      8256.953    1770.940
      457.879      8338.649    1736.216       459.335      8338.069    1769.529
      597.691      8419.674    1734.956       600.255      8419.252    1763.052
      736.626      8500.707    1730.688       741.338      8500.391    1760.383
      875.819      8581.637    1732.289       884.380      8581.494    1767.548
     1015.249      8662.554    1735.278      1024.050      8662.658    1761.161
     1154.356      8743.469    1736.809      1165.375      8743.792    1761.721
     1291.672      8824.303    1735.152      1306.163      8824.901    1761.998
     1431.609      8905.228    1738.542      1454.244      8906.376    1774.521
     1572.282      8986.199    1741.522      1598.490      8987.748    1777.954
     1713.378      9067.207    1743.357      1739.629      9068.974    1776.313
     1852.204      9148.055    1742.112      1879.465      9150.124    1774.412
     1990.486      9228.825    1740.337      2022.279      9231.543    1773.576
     2124.507      9309.130    1734.365      2160.515      9312.620    1769.394
     2263.630      9389.804    1733.457      2302.012      9394.085    1768.482
     2405.120      9470.686    1734.919      2439.480      9475.185    1763.800
     2545.130      9551.320    1735.459      2584.645      9557.506    1766.348
     2686.465      9632.096    1738.472      2729.318      9640.209    1770.876
     2828.653      9713.048    1742.789      2878.184      9724.416    1779.498
     2965.773      9792.651    1742.665      3015.584      9806.472    1778.986
     3102.924      9871.768    1740.671      3152.786      9888.383    1777.854
     3242.439      9951.234    1738.820      3287.367      9969.021    1775.304
     3387.136     10032.795    1741.468      3430.921     10053.104    1780.597
     3533.978     10115.970    1747.369      3570.987     10135.771    1781.769
     3672.381     10194.894    1746.285      3717.181     10222.108    1787.244
     3813.583     10275.451    1749.438      3861.824     10308.189    1793.425
     3950.789     10353.232    1752.797      3997.480     10388.056    1797.856
     4087.192     10430.108    1759.446      4133.516     10467.545    1809.550
     4226.413     10509.155    1773.731      4262.179     10540.078    1817.472
     4379.018     10600.556    1811.137      4420.665     10638.277    1866.019
     4523.925     10685.679    1842.797      4556.249     10715.597    1887.785
     4651.595     10754.781    1850.475      4682.500     10783.601    1893.308
     4791.492     10835.246    1872.005      4825.385     10866.743    1917.383
     4947.529     10930.622    1910.470      4980.387     10960.901    1951.856
     5086.064     11009.768    1922.453      5120.130     11040.860    1960.429
     5210.797     11076.486    1916.212      5246.084     11108.397    1951.929
     5346.942     11153.701    1917.382      5386.271     11188.979    1957.026
     5494.026     11240.716    1925.367      5529.485     11272.317    1964.353
     5633.309     11320.742    1923.862      5666.940     11350.584    1964.884
     5776.211     11403.961    1928.395      5808.866     11432.888    1970.400
     5917.063     11485.341    1928.084      5946.462     11511.413    1970.202
      397.267      8120.045    1732.491       397.661      8119.356    1763.613
      537.410      8200.990    1735.725       538.979      8200.364    1767.668
      677.423      8281.996    1735.960       680.265      8281.535    1763.930
      816.790      8363.025    1733.781       822.113      8362.682    1764.321
      955.443      8443.997    1732.440       965.099      8443.859    1768.900
     1094.116      8524.910    1733.565      1105.706      8525.069    1764.801
     1233.409      8605.823    1736.106      1247.591      8606.257    1765.415
     1371.200      8686.675    1735.884      1390.829      8687.498    1769.216
     1508.558      8767.477    1735.715      1537.976      8768.963    1778.517
     1646.962      8848.307    1736.661      1679.603      8850.196    1777.775
     1787.609      8929.257    1738.847      1823.180      8931.566    1778.340
     1929.775      9010.321    1741.507      1967.522      9013.044    1779.852
     2070.089      9091.259    1741.751      2105.337      9094.083    1774.143
     2205.993      9171.793    1737.788      2246.286      9175.402    1772.634
     2346.837      9252.710    1737.631      2388.836      9256.985    1771.849
     2485.741      9333.379    1735.553      2524.237      9337.929    1764.297
     2624.121      9413.862    1733.152      2669.107      9420.186    1763.774
     2765.896      9494.733    1734.716      2817.650      9503.528    1767.964
     2903.146      9574.666    1734.246      2960.915      9586.616    1770.105
     3036.613      9653.219    1730.812      3086.274      9665.793    1761.553
     3180.385      9734.002    1731.744      3230.675      9749.517    1764.449
     3320.515      9813.591    1729.216      3364.152      9829.832    1761.161
     3459.472      9892.376    1726.800      3503.912      9912.078    1763.088
     3604.470      9973.871    1731.171      3648.047      9996.552    1768.065
     3746.898     10054.422    1735.302      3802.583     10087.931    1781.960
     3891.024     10136.470    1742.958      3945.804     10173.889    1789.050
     4029.269     10214.752    1749.378      4078.600     10252.265    1793.439
     4170.982     10295.777    1763.392      4220.526     10337.075    1813.435
     4311.960     10376.562    1782.443      4354.444     10414.768    1831.554
     4450.370     10455.354    1804.534      4509.436     10511.245    1876.824
     4600.461     10545.708    1842.283      4637.824     10581.686    1892.464
     4732.494     10618.711    1857.460      4766.144     10650.993    1903.103
     4885.457     10711.564    1897.458      4918.218     10742.402    1939.216
     5033.060     10798.973    1923.080      5068.045     10831.287    1963.307
     5157.066     10864.739    1918.327      5195.844     10900.026    1957.608
     5286.591     10935.893    1917.445      5329.288     10974.261    1957.297
     5425.854     11015.950    1921.085      5470.595     11055.705    1963.665
     5568.081     11098.646    1923.481      5607.762     11133.555    1965.415
     5710.779     11181.725    1925.323      5747.631     11213.884    1968.710
     5855.195     11266.253    1930.886      5889.022     11295.621    1972.317
     5996.403     11347.958    1930.589      6026.802     11374.304    1972.190
      476.667      7982.520    1725.816       477.067      7981.821    1754.345
      616.617      8063.456    1728.162       618.174      8062.842    1756.802
      756.733      8144.388    1731.856       760.107      8143.852    1762.075
      896.253      8225.390    1731.573       901.771      8225.051    1760.891
     1034.712      8306.364    1730.463      1044.989      8306.240    1766.590
     1173.814      8387.279    1733.552      1188.725      8387.509    1770.570
     1312.693      8468.186    1735.495      1328.884      8468.699    1766.207
     1449.945      8549.018    1734.874      1471.513      8549.930    1768.642
     1587.471      8629.832    1735.533      1615.772      8631.250    1773.630
     1725.903      8710.671    1737.101      1759.894      8712.595    1776.478
     1860.978      8791.283    1734.099      1902.354      8793.870    1775.278
     2004.263      8872.392    1738.145      2047.058      8875.325    1775.871
     2146.708      8953.469    1740.206      2190.189      8956.729    1775.378
     2289.170      9034.566    1741.179      2336.065      9038.437    1776.809
     2430.781      9115.613    1740.062      2475.805      9119.761    1771.979
     2572.041      9196.643    1737.531      2616.531      9201.324    1766.422
     2710.133      9277.299    1732.883      2750.489      9282.307    1756.863
     2848.307      9357.836    1730.412      2897.001      9365.122    1756.934
     2980.304      9437.038    1726.154      3042.817      9448.428    1758.314
     3112.141      9515.325    1721.478      3175.940      9529.795    1754.968
     3256.251      9595.912    1721.323      3316.217      9612.810    1755.264
     3395.202      9674.876    1716.937      3448.884      9693.440    1752.109
     3532.884      9752.779    1713.793      3580.535      9772.767    1748.659
     3675.035      9832.142    1716.443      3726.528      9858.024    1755.834
     3821.318      9913.973    1724.642      3879.603      9948.628    1769.460
     3964.027      9994.358    1732.278      4020.830     10033.573    1776.755
     4100.366     10070.288    1738.410      4159.873     10116.991    1788.077
     4245.766     10153.622    1756.000      4306.023     10206.475    1813.595
     4395.896     10242.795    1785.244      4438.011     10283.162    1833.008
     4523.303     10310.754    1795.529      4595.230     10383.623    1883.488
     4685.513     10414.385    1849.366      4721.502     10451.434    1896.347
     4826.292     10495.770    1877.537      4860.032     10529.839    1922.443
     4979.461     10588.670    1917.506      5009.251     10617.494    1953.988
     5110.232     10659.746    1923.075      5142.571     10689.888    1957.687
     5231.287     10722.691    1916.720      5270.451     10758.309    1953.279
     5363.103     10795.986    1918.366      5405.306     10833.704    1955.351
     5504.315     10877.804    1923.506      5546.457     10914.931    1962.331
     5643.514     10957.878    1922.613      5680.000     10989.596    1960.731
     5788.518     11042.977    1926.629      5824.279     11073.702    1968.460
     5934.562     11128.871    1933.379      5967.833     11157.206    1973.297
     6076.168     11210.923    1933.048      6105.912     11236.128    1973.120
      556.099      7844.940    1721.162       556.523      7844.199    1749.363
      695.944      7925.872    1723.017       697.536      7925.257    1750.135
      835.636      8006.838    1724.217       839.234      8006.286    1754.092
      974.954      8087.800    1725.016       982.411      8087.367    1762.114
     1113.950      8168.730    1727.760      1125.808      8168.617    1766.831
     1254.170      8249.661    1734.202      1269.548      8249.924    1769.660
     1391.624      8330.539    1733.505      1410.499      8331.157    1766.678
     1530.049      8411.421    1735.146      1552.689      8412.387    1768.245
     1666.228      8492.182    1734.308      1695.553      8493.639    1771.507
     1803.821      8572.985    1735.420      1840.405      8575.007    1775.175
     1940.463      8653.708    1734.760      1986.820      8656.500    1777.286
     2076.744      8734.371    1733.122      2124.402      8737.472    1771.148
     2217.477      8815.300    1734.069      2267.983      8818.840    1771.226
     2361.571      8896.477    1735.554      2411.990      8900.292    1769.941
     2512.216      8978.229    1738.212      2562.309      8982.367    1769.280
     2662.667      9060.136    1738.307      2709.077      9064.419    1764.796
     2794.583      9140.363    1728.190      2844.857      9145.750    1754.890
     2927.233      9220.388    1721.562      2987.017      9228.098    1749.753
     3054.233      9299.028    1714.681      3123.455      9309.983    1745.200
     3191.066      9378.329    1712.298      3261.318      9392.419    1744.948
     3334.586      9458.685    1712.313      3408.196      9477.343    1749.062
     3474.344      9537.909    1708.955      3539.735      9558.610    1746.904
     3607.779      9614.207    1704.192      3674.179      9640.169    1747.118
     3748.339      9692.273    1706.221      3809.891      9721.722    1748.431
     3891.968      9771.556    1712.525      3958.960      9810.525    1759.892
     4035.727      9851.255    1720.752      4096.410      9893.547    1765.568
     4170.709      9924.505    1725.931      4237.307      9978.966    1778.733
     4318.308     10008.458    1743.865      4382.543     10068.921    1803.438
     4458.153     10086.736    1759.208      4506.322     10137.269    1814.351
     4590.807     10158.124    1773.227      4682.824     10261.726    1891.829
     4716.367     10222.907    1781.366      4819.553     10340.471    1914.895
     4926.021     10381.678    1899.241      4962.527     10421.427    1947.370
     5064.407     10458.127    1920.979      5096.741     10490.823    1960.157
     5186.140     10519.425    1918.581      5225.248     10556.559    1959.057
     5309.707     10584.466    1916.445      5352.588     10623.561    1954.396
     5445.417     10661.277    1922.206      5488.786     10699.810    1958.824
     5584.922     10741.568    1926.562      5625.414     10776.887    1963.610
     5726.494     10823.689    1928.716      5760.008     10852.444    1963.953
     5870.084     10907.513    1931.989      5902.599     10934.995    1970.275
     6016.157     10993.347    1938.216      6047.957     11019.900    1976.087
     6158.119     11075.682    1937.891      6186.256     11098.984    1975.897
      635.545      7707.336    1717.736       635.959      7706.613    1744.671
      775.273      7788.281    1718.452       776.950      7787.654    1745.735
      914.974      7869.216    1720.889       918.808      7868.655    1750.896
     1053.818      7950.194    1720.169      1060.909      7949.814    1753.058
     1192.862      8031.098    1723.997      1204.984      8031.017    1761.212
     1331.318      8111.988    1727.104      1347.216      8112.290    1761.430
     1471.179      8192.915    1731.882      1491.254      8193.593    1764.884
     1610.044      8273.823    1734.201      1635.596      8274.922    1769.441
     1748.859      8354.729    1736.785      1779.995      8356.261    1774.506
     1883.300      8435.391    1734.229      1923.421      8437.554    1775.568
     2018.721      8516.067    1732.841      2068.593      8518.955    1775.915
     2153.358      8596.659    1730.642      2204.416      8599.805    1768.845
     2293.745      8677.581    1731.435      2350.128      8681.261    1770.368
     2437.569      8758.736    1731.647      2493.935      8762.629    1767.066
     2594.057      8840.843    1734.451      2651.758      8845.092    1766.716
     2741.957      8922.453    1729.744      2799.074      8927.010    1759.237
     2883.328      9003.654    1722.548      2942.922      9008.977    1751.518
     3010.828      9083.503    1711.917      3078.645      9090.681    1741.413
     3134.048      9161.992    1702.340      3207.559      9172.042    1734.821
     3272.071      9241.678    1701.853      3352.811      9255.897    1737.789
     3415.333      9322.078    1704.115      3492.307      9339.402    1739.423
     3553.163      9400.930    1702.774      3632.713      9423.635    1743.268
     3691.867      9479.376    1702.747      3760.245      9503.843    1741.387
     3834.723      9558.935    1706.893      3914.630      9594.393    1755.495
     3975.662      9637.080    1711.426      4046.121      9676.362    1757.033
     4111.767      9711.196    1713.596      4176.660      9756.598    1759.038
     4253.077      9788.153    1722.092      4320.893      9846.166    1774.328
     4396.846      9867.971    1734.667      4460.424      9932.818    1793.654
     4535.520      9943.596    1745.273      4580.590      9996.804    1799.288
     4669.653     10012.514    1754.598      4705.062     10061.178    1807.026
     4794.578     10075.331    1763.866      4903.864     10225.072    1916.447
     5006.392     10250.111    1891.402      5049.832     10302.779    1950.540
     5141.148     10319.790    1909.879      5182.427     10363.703    1960.485
     5265.588     10382.443    1912.941      5308.794     10424.344    1957.152
     5394.952     10452.466    1918.241      5438.394     10492.170    1955.741
     5530.159     10528.690    1925.128      5574.772     10567.989    1962.271
     5665.665     10605.463    1927.835      5711.690     10645.058    1970.311
     5812.951     10692.377    1937.301      5847.870     10721.840    1974.214
     5954.960     10774.750    1940.179      5987.090     10801.390    1978.225
     6099.564     10859.232    1944.156      6131.356     10885.206    1982.013