NOECHO

-- =============================================================================
-- 
-- Exported from Reek_base_sim
-- 
-- Exported by user asny from RMS11 at 2020-02-19 15:56:57
-- 
-- =============================================================================

MAPUNITS
'METRES  ' /

MAPAXES
456514.862 5939177.353
456514.862 5927115.548
467218.584 5927115.548 /

GRIDUNIT
'METRES  ' '        ' /

SPECGRID
  40  64  14   1  F  /

GDORIENT
INC INC INC DOWN RIGHT /

COORD
        0.000      8808.168    1734.244         0.209      8807.730    1790.815
      139.936      8889.206    1731.692       140.968      8888.797    1785.575
      279.685      8970.238    1730.552       281.793      8969.855    1780.828
      419.271      9051.236    1732.775       423.112      9050.885    1782.691
      558.651      9132.212    1735.632       564.697      9131.960    1783.287
      697.780      9213.168    1738.275       705.473      9213.078    1778.048
      837.052      9294.106    1741.924       847.097      9294.189    1778.710
      976.527      9375.036    1744.618       990.192      9375.351    1784.197
     1115.474      9455.937    1743.596      1131.359      9456.502    1782.722
     1253.369      9536.761    1739.687      1270.313      9537.562    1775.738
     1391.150      9617.522    1736.757      1410.390      9618.659    1773.209
     1529.129      9698.227    1736.159      1552.705      9699.916    1777.065
     1667.052      9778.849    1737.460      1696.332      9781.354    1784.434
     1805.647      9859.438    1739.827      1839.275      9862.857    1790.652
     1945.356      9940.050    1742.566      1981.879      9944.475    1794.147
     2082.892     10020.252    1740.075      2120.940     10025.773    1788.052
     2220.551     10100.227    1738.495      2260.821     10107.259    1784.280
     2360.149     10180.312    1741.580      2403.615     10189.442    1786.512
     2500.585     10260.417    1746.730      2541.913     10270.804    1786.830
     2640.609     10340.278    1752.706      2678.839     10351.667    1788.196
     2781.597     10420.310    1759.706      2824.534     10435.297    1798.292
     2922.003     10500.071    1764.512      2967.387     10518.362    1803.270
     3062.340     10579.729    1766.426      3106.425     10599.938    1802.727
     3202.447     10659.223    1765.892      3245.244     10681.227    1802.094
     3342.457     10738.616    1764.420      3384.405     10762.515    1802.583
     3481.658     10817.463    1763.270      3523.600     10843.685    1803.505
     3620.153     10895.724    1763.915      3661.473     10923.821    1805.048
     3760.168     10974.971    1767.941      3801.103     11004.964    1811.008
     3901.699     11055.500    1774.407      3938.965     11084.602    1817.796
     4042.798     11135.964    1785.343      4078.467     11165.295    1830.448
     4186.496     11218.913    1809.173      4222.404     11249.631    1852.703
     4332.204     11304.011    1833.455      4369.034     11336.404    1876.996
     4469.343     11381.789    1844.098      4514.103     11421.848    1898.624
     4614.260     11466.641    1865.761      4658.755     11506.876    1921.368
     4763.253     11555.324    1895.655      4800.371     11589.117    1941.518
     4906.181     11638.566    1914.174      4940.581     11670.067    1953.870
     5043.770     11716.916    1920.370      5078.623     11749.037    1960.276
     5182.291     11796.097    1922.602      5215.487     11826.907    1964.819
     5322.528     11876.854    1924.300      5353.849     11906.149    1971.363
     5463.294     11958.102    1927.924      5490.605     11983.869    1975.920
     5604.152     12039.436    1927.716      5627.623     12061.805    1975.733
       79.447      8670.531    1734.241        79.704      8670.079    1790.813
      219.407      8751.569    1731.716       220.479      8751.159    1785.604
      359.179      8832.601    1730.602       361.344      8832.219    1780.897
      498.810      8913.596    1732.832       502.755      8913.253    1782.740
      638.246      8994.572    1735.670       644.449      8994.334    1783.294
      777.447      9075.531    1738.315       785.320      9075.459    1778.093
      916.842      9156.473    1741.976       927.023      9156.578    1778.770
     1056.425      9237.411    1744.645      1069.894      9237.742    1784.201
     1195.564      9318.325    1743.597      1210.924      9318.887    1782.718
     1333.734      9399.172    1739.711      1350.174      9399.956    1775.742
     1471.720      9479.962    1736.827      1490.392      9481.060    1773.240
     1609.918      9560.706    1736.245      1632.640      9562.311    1777.093
     1748.116      9641.385    1737.529      1776.215      9643.736    1784.451
     1887.046      9722.047    1739.911      1919.581      9725.267    1790.680
     2027.065      9802.752    1742.565      2063.042      9806.980    1794.149
     2165.468      9883.157    1740.136      2202.720      9888.397    1787.917
     2304.321      9963.459    1738.719      2343.750      9970.138    1784.233
     2445.084     10043.958    1741.860      2487.660     10052.651    1786.600
     2586.498     10124.551    1747.129      2626.690     10134.391    1786.772
     2726.921     10204.852    1753.145      2764.540     10215.794    1788.448
     2867.959     10285.263    1760.095      2911.010     10299.972    1798.704
     3008.598     10365.498    1764.768      3053.452     10383.237    1803.357
     3148.956     10445.565    1766.535      3191.198     10464.611    1802.717
     3289.162     10525.508    1765.937      3329.175     10545.786    1802.178
     3429.161     10605.296    1764.429      3467.189     10626.697    1802.724
     3568.908     10684.884    1763.336      3606.791     10708.325    1803.590
     3707.926     10763.930    1764.121      3745.491     10789.263    1805.318
     3847.810     10843.520    1768.360      3884.882     10870.500    1811.344
     3987.168     10922.751    1774.751      4021.215     10949.200    1818.129
     4126.289     11001.842    1785.943      4158.848     11028.508    1830.736
     4269.719     11084.689    1809.987      4300.899     11111.268    1852.548
     4413.390     11168.084    1833.647      4445.381     11196.115    1876.435
     4549.863     11245.312    1844.216      4589.683     11280.793    1897.992
     4694.313     11329.742    1865.931      4734.508     11365.890    1920.783
     4842.073     11417.270    1895.506      4875.917     11447.873    1940.887
     4984.279     11499.831    1914.029      5017.040     11529.593    1953.675
     5122.357     11578.638    1920.357      5156.279     11609.626    1960.349
     5261.791     11658.668    1922.627      5294.284     11688.532    1964.983
     5402.704     11740.050    1924.356      5433.414     11768.476    1971.534
     5543.759     11821.572    1927.958      5570.983     11846.972    1976.033
     5684.344     11902.651    1927.748      5708.229     11925.148    1975.847
      158.896      8532.921    1734.856       159.215      8532.363    1790.993
      298.816      8613.963    1731.259       300.073      8613.475    1785.490
      438.485      8694.994    1729.133       440.971      8694.565    1779.066
      577.974      8775.981    1730.610       582.345      8775.625    1778.606
      717.327      8856.940    1733.741       724.172      8856.714    1779.506
      856.508      8937.884    1736.909       864.335      8937.849    1771.590
      995.516      9018.813    1739.441      1005.364      9018.951    1771.340
     1135.281      9099.749    1742.958      1150.740      9100.168    1784.270
     1274.832      9180.676    1743.470      1292.568      9181.349    1784.794
     1412.521      9261.506    1738.972      1430.092      9262.346    1774.584
     1549.565      9342.246    1734.648      1569.385      9343.388    1770.725
     1687.751      9422.991    1734.158      1712.098      9424.647    1775.427
     1826.654      9503.734    1736.453      1855.918      9506.062    1782.772
     1965.429      9584.404    1738.246      1998.866      9587.517    1787.270
     2106.719      9665.259    1741.870      2145.309      9669.500    1793.528
     2243.564      9745.516    1736.971      2281.182      9750.453    1782.299
     2381.006      9825.613    1733.478      2421.146      9831.965    1777.034
     2523.087      9906.311    1737.429      2566.303      9914.587    1780.037
     2664.621      9986.905    1742.228      2705.621      9996.368    1779.839
     2804.877     10067.140    1747.318      2842.948     10077.640    1780.405
     2948.217     10148.252    1755.299      2994.579     10163.359    1793.850
     3087.889     10228.179    1758.799      3133.562     10245.514    1795.869
     3229.742     10308.890    1762.039      3273.263     10327.838    1798.070
     3368.296     10388.083    1760.433      3409.224     10408.236    1796.904
     3508.832     10468.129    1759.929      3546.603     10488.904    1797.593
     3647.184     10546.867    1757.805      3685.974     10570.450    1799.001
     3785.763     10625.551    1758.044      3822.146     10649.768    1797.846
     3925.200     10704.720    1761.916      3963.397     10732.270    1806.190
     4065.076     10784.254    1770.537      4096.979     10808.892    1811.251
     4200.104     10859.953    1778.307      4232.573     10886.439    1823.024
     4348.091     10946.491    1808.877      4378.813     10972.586    1852.063
     4495.959     11033.535    1839.854      4523.489     11057.546    1877.868
     4626.069     11105.209    1842.939      4665.797     11140.380    1897.126
     4771.663     11190.628    1866.406      4811.855     11226.449    1920.285
     4924.694     11282.792    1901.597      4958.938     11313.390    1944.897
     5065.178     11363.783    1917.106      5096.930     11392.208    1953.333
     5200.544     11440.186    1920.159      5232.710     11469.065    1955.927
     5338.093     11518.525    1919.566      5371.097     11548.272    1959.877
     5477.769     11598.764    1918.727      5511.382     11629.213    1966.290
     5619.889     11681.213    1922.974      5650.727     11709.328    1971.790
     5760.703     11762.478    1922.720      5788.040     11787.601    1971.563
      238.351      8395.300    1735.881       238.693      8394.703    1784.786
      378.282      8476.337    1732.940       379.754      8475.749    1786.736
      518.036      8557.350    1732.041       520.970      8556.840    1782.100
      657.791      8638.319    1734.840       662.449      8637.948    1778.382
      796.719      8719.304    1733.813       803.228      8719.109    1771.014
      935.752      8800.242    1736.281       943.790      8800.230    1767.149
     1074.646      8881.165    1738.643      1086.644      8881.360    1773.152
     1214.399      8962.099    1742.360      1231.921      8962.601    1784.194
     1353.599      9043.015    1742.953      1374.914      9043.834    1787.212
     1492.842      9123.918    1742.455      1514.797      9124.955    1782.476
     1631.779      9204.788    1741.481      1657.296      9206.211    1783.673
     1770.034      9285.584    1740.677      1799.521      9287.495    1786.434
     1905.602      9366.130    1737.459      1937.618      9368.527    1783.952
     2042.808      9446.690    1736.561      2077.693      9449.717    1783.312
     2182.863      9527.411    1737.874      2219.535      9531.142    1782.832
     2322.861      9608.052    1736.325      2366.450      9613.334    1784.575
     2462.111      9688.488    1734.045      2504.123      9694.632    1775.781
     2601.064      9768.709    1734.267      2649.594      9777.332    1777.384
     2742.952      9849.355    1738.523      2796.031      9860.784    1781.738
     2882.427      9929.387    1741.786      2926.265      9940.741    1775.510
     3026.644     10010.659    1748.744      3074.929     10025.548    1785.034
     3164.628     10089.949    1750.498      3214.904     10108.160    1788.308
     3309.805     10171.868    1756.398      3363.359     10194.329    1798.095
     3452.585     10253.118    1759.181      3496.495     10274.147    1796.354
     3593.510     10333.620    1760.456      3642.444     10360.041    1806.706
     3727.953     10410.294    1756.064      3770.745     10436.039    1799.903
     3864.914     10487.951    1755.520      3900.688     10511.659    1793.099
     4003.052     10566.130    1758.738      4041.199     10593.672    1801.300
     4142.202     10644.981    1767.984      4176.469     10671.610    1810.405
     4285.391     10727.269    1788.573      4319.535     10755.337    1834.563
     4435.234     10815.694    1823.083      4461.072     10837.750    1859.159
     4573.248     10894.357    1841.676      4604.117     10921.321    1884.260
     4707.685     10969.875    1851.871      4743.224     11001.272    1899.349
     4858.701     11060.118    1882.156      4892.131     11089.748    1924.596
     5010.529     11151.127    1912.605      5039.735     11177.000    1945.948
     5140.278     11222.589    1914.350      5174.802     11253.138    1950.149
     5274.948     11298.424    1916.155      5308.713     11328.292    1950.754
     5416.639     11380.471    1919.480      5455.612     11414.977    1963.424
     5557.023     11461.356    1919.563      5593.381     11493.626    1966.342
     5697.836     11542.614    1921.654      5731.083     11572.246    1968.553
     5838.767     11623.969    1921.492      5868.415     11650.561    1968.446
      317.809      8257.675    1735.638       318.160      8257.062    1776.838
      457.768      8338.700    1733.784       459.201      8338.118    1777.501
      597.498      8419.719    1731.894       600.334      8419.225    1772.369
      736.926      8500.710    1731.561       741.729      8500.338    1769.261
      876.137      8581.667    1733.309       883.266      8581.471    1767.948
     1014.946      8662.602    1735.214      1024.130      8662.608    1765.952
     1153.055      8743.506    1736.020      1165.626      8743.731    1768.369
     1290.837      8824.373    1736.312      1305.921      8824.819    1768.747
     1430.311      8905.278    1739.278      1450.795      8906.064    1777.342
     1571.299      8986.250    1743.093      1595.345      8987.358    1782.131
     1712.250      9067.230    1745.520      1738.961      9068.659    1784.648
     1852.182      9148.156    1746.884      1883.851      9150.092    1790.229
     1989.143      9228.860    1745.089      2024.926      9231.356    1790.851
     2127.078      9309.563    1744.087      2163.425      9312.472    1787.131
     2262.789      9389.978    1739.326      2305.920      9393.994    1786.274
     2401.142      9470.486    1735.214      2447.870      9475.649    1781.284
     2542.614      9551.252    1734.094      2589.038      9557.440    1774.998
     2685.976      9632.296    1736.815      2737.937      9640.735    1776.915
     2823.069      9712.216    1736.053      2876.214      9722.734    1773.210
     2957.598      9791.154    1734.857      3011.355      9804.051    1770.595
     3098.585      9871.250    1737.957      3151.646      9886.551    1773.402
     3241.282      9951.809    1742.293      3297.310      9971.004    1780.751
     3386.775     10033.588    1747.969      3438.764     10054.477    1785.388
     3533.884     10116.624    1754.388      3574.564     10135.543    1786.423
     3674.154     10196.844    1756.167      3722.239     10222.404    1798.358
     3814.750     10277.248    1759.396      3859.500     10304.073    1802.009
     3949.857     10354.074    1758.793      3990.537     10381.190    1798.531
     4086.241     10431.215    1762.269      4124.915     10459.551    1802.825
     4222.683     10508.012    1770.941      4254.191     10533.092    1807.853
     4375.464     10598.513    1805.787      4405.470     10623.866    1843.890
     4522.464     10685.063    1838.142      4552.525     10711.220    1878.914
     4646.965     10751.961    1840.186      4684.959     10785.528    1891.939
     4792.605     10837.441    1867.326      4826.050     10867.094    1910.235
     4949.836     10933.208    1903.416      4979.821     10959.737    1938.338
     5087.382     11011.518    1914.052      5120.286     11040.514    1947.680
     5211.818     11078.357    1909.789      5245.455     11107.869    1941.254
     5347.903     11155.501    1911.733      5385.862     11188.678    1947.689
     5492.189     11239.816    1916.334      5525.372     11268.743    1951.386
     5633.389     11321.425    1916.795      5666.215     11350.017    1955.917
     5775.911     11404.173    1920.687      5807.313     11431.564    1960.866
     5916.855     11485.534    1920.434      5944.960     11510.147    1960.618
      397.251      8120.077    1731.930       397.643      8119.393    1769.691
      537.310      8201.036    1734.149       538.776      8200.439    1771.272
      677.382      8282.013    1735.352       679.558      8281.638    1761.320
      816.878      8363.037    1733.363       821.742      8362.672    1765.683
      955.697      8444.027    1732.581       962.705      8443.849    1762.059
     1094.624      8524.964    1735.278      1105.579      8524.991    1768.075
     1232.200      8605.864    1735.351      1245.470      8606.115    1766.646
     1369.861      8686.729    1736.371      1386.009      8687.211    1768.345
     1509.273      8767.636    1740.271      1530.187      8768.428    1775.677
     1648.605      8848.539    1742.282      1674.523      8849.693    1779.863
     1790.683      8929.572    1746.445      1821.930      8931.158    1786.325
     1931.034      9010.523    1747.950      1964.486      9012.438    1787.151
     2075.161      9091.711    1753.543      2112.293      9094.104    1793.983
     2213.677      9172.545    1751.868      2249.178      9175.140    1787.718
     2349.863      9253.143    1746.608      2395.212      9256.965    1788.777
     2487.993      9333.808    1741.272      2529.125      9337.887    1776.191
     2624.804      9414.205    1734.728      2671.914      9419.829    1770.221
     2764.519      9494.797    1732.872      2813.147      9501.885    1764.675
     2899.212      9574.371    1730.027      2954.506      9584.234    1762.745
     3034.047      9653.410    1728.763      3086.689      9664.912    1759.003
     3170.429      9732.161    1728.388      3224.454      9746.534    1760.343
     3312.135      9811.953    1730.875      3364.472      9828.726    1763.379
     3462.744      9895.036    1738.660      3522.761      9917.942    1778.250
     3611.322      9978.339    1745.613      3657.913      9999.280    1779.277
     3752.016     10058.583    1748.192      3793.235     10080.156    1781.215
     3893.350     10139.236    1752.708      3935.723     10164.689    1788.943
     4031.846     10218.159    1757.117      4076.699     10248.587    1797.028
     4166.521     10293.979    1761.530      4211.868     10328.266    1806.042
     4306.686     10373.646    1776.844      4351.287     10410.667    1826.860
     4447.539     10454.282    1799.739      4505.559     10505.727    1868.938
     4598.490     10544.742    1836.623      4641.481     10583.742    1893.268
     4731.351     10618.890    1851.978      4770.021     10654.092    1903.976
     4885.603     10712.338    1891.318      4913.688     10737.602    1925.779
     5032.400     10798.790    1912.748      5056.776     10820.441    1938.753
     5155.257     10864.075    1907.599      5186.039     10891.146    1936.114
     5284.302     10935.039    1907.342      5321.917     10967.851    1939.740
     5426.158     11017.260    1912.894      5463.097     11049.247    1946.224
     5569.922     11101.113    1915.902      5599.056     11126.180    1945.823
     5710.465     11182.172    1915.141      5737.563     11205.382    1946.253
     5854.605     11266.292    1920.742      5882.488     11290.126    1954.081
     5995.529     11347.640    1920.441      6020.599     11369.096    1953.704
      476.655      7982.546    1724.237       477.031      7981.890    1754.805
      616.657      8063.448    1728.387       618.142      8062.852    1760.065
      756.659      8144.410    1729.931       759.313      8143.963    1756.904
      896.334      8225.402    1730.456       900.914      8225.072    1756.906
     1035.335      8306.387    1731.396      1042.514      8306.220    1758.463
     1174.242      8387.331    1734.711      1184.576      8387.370    1763.449
     1311.442      8468.227    1734.677      1326.277      8468.519    1767.635
     1448.627      8549.082    1735.631      1468.465      8549.673    1772.496
     1586.675      8629.943    1738.286      1612.651      8630.903    1778.957
     1723.904      8710.757    1738.595      1753.495      8712.019    1777.171
     1864.443      8791.700    1741.492      1896.333      8793.224    1776.792
     2004.109      8872.594    1742.386      2038.460      8874.417    1776.382
     2147.059      8953.663    1745.723      2185.683      8955.943    1780.912
     2289.387      9034.712    1746.868      2335.561      9037.767    1785.734
     2434.992      9116.030    1748.419      2481.744      9119.549    1784.746
     2577.677      9197.214    1745.240      2614.878      9200.471    1771.839
     2712.374      9277.656    1735.800      2763.859      9283.061    1768.609
     2846.696      9357.815    1729.042      2911.437      9366.146    1764.628
     2974.749      9436.592    1722.539      3033.318      9445.835    1751.881
     3104.562      9514.674    1718.714      3175.629      9528.566    1754.855
     3242.508      9593.523    1719.117      3312.988      9610.571    1756.850
     3393.259      9675.588    1725.873      3452.676      9693.173    1759.569
     3537.162      9756.121    1728.327      3592.969      9776.121    1762.093
     3674.356      9833.951    1726.778      3726.424      9856.361    1761.028
     3820.334      9915.467    1732.173      3874.832      9943.430    1771.531
     3966.782      9998.071    1740.723      4019.531     10029.911    1781.233
     4106.910     10077.381    1747.791      4166.886     10119.243    1796.561
     4243.673     10154.045    1755.565      4303.314     10201.435    1810.907
     4390.046     10238.843    1778.259      4436.928     10280.266    1830.136
     4520.203     10309.718    1789.978      4595.570     10381.171    1879.762
     4685.573     10414.878    1845.526      4724.621     10452.745    1895.624
     4826.358     10496.297    1872.636      4866.193     10534.474    1924.632
     4979.132     10588.412    1909.743      5003.856     10611.307    1938.852
     5112.466     10662.300    1916.495      5138.957     10686.091    1943.079
     5235.227     10727.303    1911.732      5264.568     10753.136    1937.102
     5365.112     10799.006    1911.586      5393.710     10823.848    1935.112
     5507.743     10881.882    1917.082      5531.284     10902.110    1938.135
     5649.072     10963.629    1917.414      5674.346     10985.129    1943.568
     5788.794     11044.020    1915.088      5812.422     11063.949    1942.253
     5934.001     11129.005    1921.774      5959.466     11150.365    1951.184
     6074.955     11210.387    1921.424      6097.986     11229.664    1950.755
      556.089      7844.963    1718.953       556.478      7844.284    1746.810
      695.848      7925.917    1719.755       697.134      7925.413    1743.475
      835.370      8006.896    1719.543       837.797      8006.502    1741.121
      974.623      8087.847    1721.150       978.677      8087.569    1742.118
     1113.443      8168.780    1724.435      1121.560      8168.609    1752.761
     1253.229      8249.696    1732.251      1263.940      8249.749    1760.841
     1390.521      8330.590    1733.348      1408.930      8330.959    1772.548
     1527.568      8411.447    1734.711      1550.033      8412.105    1774.119
     1663.704      8492.250    1735.021      1696.440      8493.415    1782.446
     1803.140      8573.162    1738.938      1840.112      8574.648    1782.445
     1942.104      8654.050    1740.215      1982.878      8655.857    1779.799
     2080.995      8734.917    1740.373      2121.319      8736.875    1774.487
     2222.737      8815.911    1741.721      2268.417      8818.344    1776.765
     2365.409      8896.960    1741.639      2414.790      8899.869    1776.406
     2518.846      8978.738    1745.932      2566.884      8981.907    1777.226
     2661.170      9059.917    1740.304      2701.830      9062.990    1764.952
     2795.384      9140.471    1729.694      2849.159      9145.299    1759.294
     2930.047      9220.881    1722.706      2994.369      9228.022    1753.030
     3053.501      9299.427    1714.600      3129.004      9309.819    1747.917
     3187.348      9378.476    1712.999      3261.360      9391.235    1748.127
     3325.322      9457.617    1714.269      3396.700      9473.075    1750.015
     3474.244      9539.159    1719.896      3531.018      9554.436    1749.778
     3611.557      9617.543    1718.144      3666.402      9635.704    1748.832
     3747.929      9694.716    1715.878      3805.308      9717.984    1750.378
     3893.150      9775.009    1719.997      3957.872      9807.167    1762.541
     4035.548      9854.099    1725.437      4090.874      9887.506    1764.435
     4170.440      9927.987    1728.712      4236.351      9975.564    1778.919
     4314.225     10007.986    1741.091      4373.265     10058.015    1794.076
     4453.296     10084.890    1753.190      4503.823     10133.443    1809.475
     4589.063     10159.326    1768.931      4684.733     10259.471    1888.313
     4716.740     10226.827    1777.923      4819.866     10337.318    1909.123
     4926.496     10381.300    1893.310      4964.153     10420.158    1941.628
     5069.237     10462.510    1918.430      5095.838     10488.243    1949.230
     5191.565     10525.081    1915.668      5219.786     10550.920    1943.275
     5316.055     10591.299    1913.907      5342.746     10614.886    1936.243
     5448.367     10665.089    1916.232      5475.636     10688.666    1938.492
     5586.068     10743.712    1918.075      5605.566     10760.314    1935.934
     5724.646     10823.156    1915.620      5748.082     10842.846    1940.512
     5870.784     10908.929    1919.690      5895.188     10929.192    1948.276
     6016.314     10994.112    1926.275      6040.340     11013.879    1953.685
     6157.331     11075.539    1925.930      6179.200     11093.439    1953.449
      635.544      7707.344    1715.268       635.927      7706.674    1740.444
      775.177      7788.324    1714.588       776.559      7787.803    1737.228
      914.234      7869.346    1711.936       916.618      7868.977    1730.958
     1053.307      7950.258    1714.917      1057.498      7949.988    1734.708
     1191.496      8031.170    1717.758      1200.244      8031.006    1746.242
     1331.401      8112.059    1727.443      1345.697      8112.144    1763.994
     1471.256      8192.992    1734.809      1492.955      8193.427    1778.839
     1609.060      8273.892    1737.071      1637.661      8274.703    1784.226
     1744.873      8354.717    1736.260      1783.602      8356.015    1788.025
     1881.437      8435.547    1736.300      1928.842      8437.306    1787.144
     2018.230      8516.368    1735.923      2066.394      8518.301    1778.104
     2154.933      8597.155    1734.847      2207.175      8599.417    1774.154
     2295.126      8678.066    1734.775      2353.857      8680.822    1774.294
     2444.905      8759.449    1737.681      2501.126      8762.332    1772.088
     2590.070      8840.656    1733.775      2655.240      8844.347    1770.673
     2738.691      8922.155    1729.223      2796.131      8925.804    1759.741
     2882.766      9003.508    1722.343      2943.439      9007.952    1752.089
     3009.152      9083.469    1710.949      3085.711      9090.319    1744.094
     3134.513      9162.534    1703.572      3218.672      9172.366    1741.302
     3277.145      9243.145    1707.617      3359.665      9255.548    1746.329
     3408.848      9321.681    1707.605      3494.167      9338.000    1748.568
     3545.015      9400.223    1707.759      3632.720      9421.357    1751.252
     3685.066      9479.109    1707.901      3756.070      9500.427    1744.957
     3828.479      9558.734    1709.734      3890.303      9581.729    1744.066
     3971.765      9637.874    1712.336      4039.513      9669.740    1753.779
     4105.705      9711.167    1711.995      4174.391      9752.226    1757.847
     4249.590      9789.463    1721.055      4309.192      9833.835    1764.993
     4390.919      9866.242    1729.757      4445.822      9915.960    1778.724
     4533.537      9945.153    1742.314      4575.320      9989.686    1790.413
     4669.023     10016.028    1752.368      4706.755     10063.369    1805.290
     4794.822     10080.049    1761.001      4901.309     10216.356    1905.127
     5008.019     10250.479    1886.404      5041.544     10288.849    1930.467
     5151.192     10329.607    1913.470      5181.793     10360.683    1949.141
     5277.453     10394.206    1916.870      5303.857     10418.879    1942.566
     5405.298     10462.744    1919.650      5433.966     10488.143    1943.548
     5533.509     10532.765    1920.305      5560.678     10556.067    1942.890
     5667.281     10608.025    1920.693      5688.942     10626.229    1941.335
     5810.328     10691.167    1924.413      5834.934     10711.508    1951.202
     5955.499     10776.001    1928.305      5980.451     10796.337    1957.696
     6101.060     10861.079    1933.470      6125.118     10880.458    1960.766