NOECHO

-- =============================================================================
-- 
-- Exported from Reek_base_sim
-- 
-- Exported by user asny from RMS11 at 2020-02-19 15:58:08
-- 
-- =============================================================================

MAPUNITS
'METRES  ' /

MAPAXES
456514.902 5939180.230
456514.902 5927115.548
467218.355 5927115.548 /

GRIDUNIT
'METRES  ' '        ' /

SPECGRID
  40  64  14   1  F  /

GDORIENT
INC INC INC DOWN RIGHT /

COORD
        0.000      8808.090    1729.469         0.146      8807.771    1763.823
      140.065      8889.126    1730.685       140.901      8888.817    1765.646
      280.047      8970.153    1732.887       281.831      8969.852    1768.223
      419.903      9051.167    1734.566       422.948      9050.911    1770.029
      559.638      9132.163    1736.608       564.095      9132.001    1771.129
      699.095      9213.145    1739.334       705.595      9213.106    1775.189
      838.453      9294.105    1742.516       847.923      9294.251    1782.170
      977.806      9375.047    1744.769       990.304      9375.448    1785.409
     1116.941      9455.962    1745.203      1132.416      9456.683    1785.057
     1255.324      9536.805    1743.088      1273.487      9537.905    1782.127
     1393.317      9617.568    1739.918      1413.212      9619.058    1776.873
     1530.936      9698.230    1736.830      1554.123      9700.316    1774.410
     1669.072      9778.853    1736.069      1698.198      9781.955    1777.178
     1806.499      9859.298    1736.260      1841.282      9863.641    1779.019
     1944.089      9939.619    1737.413      1983.856      9945.423    1780.367
     2083.995     10020.152    1741.119      2123.606     10026.914    1778.819
     2221.323     10100.075    1742.556      2261.929     10108.187    1777.171
     2358.441     10179.660    1744.062      2401.703     10189.766    1778.836
     2498.956     10259.807    1749.116      2544.309     10272.158    1785.310
     2638.860     10339.625    1754.779      2686.639     10354.738    1793.880
     2779.568     10419.521    1760.787      2830.599     10438.184    1805.359
     2918.884     10498.709    1764.317      2973.408     10521.584    1816.852
     3057.697     10577.402    1765.438      3114.918     10604.667    1825.279
     3198.125     10656.683    1765.866      3251.055     10685.006    1820.300
     3340.196     10736.889    1765.841      3386.620     10764.486    1811.849
     3480.952     10816.427    1764.574      3519.368     10841.539    1801.931
     3619.670     10894.597    1764.020      3656.367     10920.711    1800.176
     3759.306     10973.396    1767.192      3800.208     11004.729    1810.245
     3900.248     11053.372    1773.715      3941.187     11086.722    1821.665
     4041.398     11133.821    1784.370      4081.043     11167.722    1834.853
     4183.032     11215.015    1805.097      4222.569     11250.057    1853.174
     4328.900     11300.368    1830.065      4368.078     11335.920    1874.946
     4467.175     11379.100    1842.619      4508.153     11416.792    1889.398
     4610.691     11462.790    1862.163      4651.011     11500.125    1908.294
     4758.245     11550.330    1888.370      4800.053     11589.184    1934.399
     4902.125     11634.504    1907.152      4944.512     11674.050    1953.579
     5040.535     11713.581    1913.803      5082.604     11753.032    1961.500
     5180.461     11794.064    1916.835      5217.909     11829.408    1963.724
     5322.208     11876.271    1921.717      5356.674     11909.049    1970.790
     5463.440     11957.994    1927.855      5493.668     11986.999    1975.589
     5603.840     12038.913    1927.525      5630.414     12064.682    1975.419
       79.448      8670.458    1729.499        79.626      8670.146    1763.828
      219.522      8751.496    1730.713       220.369      8751.200    1765.661
      359.528      8832.521    1732.904       361.294      8832.236    1768.211
      499.454      8913.529    1734.582       502.474      8913.291    1770.008
      639.305      8994.523    1736.637       643.753      8994.383    1771.156
      778.841      9075.511    1739.364       785.347      9075.494    1775.219
      918.309      9156.481    1742.560       927.843      9156.647    1782.185
     1057.841      9237.437    1744.819      1070.365      9237.854    1785.415
     1197.035      9318.365    1745.229      1212.324      9319.085    1785.054
     1335.421      9399.221    1743.119      1353.042      9400.284    1782.126
     1473.613      9480.015    1739.954      1492.779      9481.430    1776.879
     1611.547      9560.729    1736.888      1633.988      9562.708    1774.418
     1750.368      9641.458    1736.156      1778.776      9644.408    1777.198
     1888.711      9722.066    1736.330      1922.408      9726.155    1779.034
     2027.301      9802.612    1737.553      2065.215      9807.980    1780.342
     2168.078      9883.402    1741.243      2205.643      9889.615    1778.771
     2306.452      9963.699    1742.678      2345.466      9971.247    1777.137
     2445.114     10043.872    1744.425      2486.865     10053.318    1778.955
     2586.444     10124.539    1749.499      2630.112     10136.064    1785.578
     2726.183     10204.689    1755.228      2772.358     10218.860    1794.257
     2866.291     10284.780    1761.162      2916.102     10302.485    1805.824
     3004.866     10364.080    1764.550      3058.435     10385.981    1817.251
     3143.349     10443.012    1765.611      3199.612     10469.214    1825.401
     3284.169     10522.851    1765.983      3334.762     10549.397    1820.188
     3426.920     10603.815    1765.880      3470.574     10629.347    1811.617
     3568.657     10684.391    1764.569      3604.385     10707.449    1801.789
     3707.705     10763.261    1764.162      3742.011     10787.439    1800.650
     3846.519     10841.884    1767.546      3884.035     10870.429    1810.763
     3984.941     10920.176    1774.053      4022.106     10950.313    1821.868
     4123.727     10998.811    1784.725      4159.779     11029.546    1834.865
     4265.385     11080.109    1805.672      4299.901     11110.632    1852.853
     4409.462     11163.897    1830.241      4443.300     11194.532    1874.247
     4546.812     11241.809    1842.641      4582.933     11274.931    1888.852
     4689.849     11325.065    1862.103      4725.769     11358.173    1907.538
     4836.676     11411.904    1888.164      4874.381     11446.728    1933.246
     4980.230     11495.754    1907.005      5020.625     11533.152    1953.044
     5119.384     11575.537    1913.786      5160.381     11613.640    1961.432
     5260.301     11656.954    1916.860      5296.536     11690.812    1963.836
     5403.119     11740.158    1921.826      5435.839     11770.941    1970.864
     5544.684     11822.205    1927.871      5573.436     11849.476    1975.656
     5684.378     11902.468    1927.536      5710.409     11927.407    1975.485
      158.886      8532.869    1727.838       159.103      8532.489    1763.701
      298.881      8613.905    1728.703       299.811      8613.582    1763.566
      438.812      8694.917    1731.097       440.778      8694.616    1767.386
      578.660      8775.913    1732.773       582.096      8775.669    1769.636
      718.177      8856.903    1733.037       722.593      8856.792    1763.764
      857.787      8937.873    1736.769       864.862      8937.890    1771.589
      997.218      9018.831    1739.958      1008.176      9019.061    1780.502
     1136.861      9099.787    1742.666      1150.417      9100.265    1782.218
     1276.285      9180.724    1744.231      1293.033      9181.522    1784.089
     1414.585      9261.582    1742.672      1434.195      9262.747    1782.541
     1552.344      9342.356    1739.273      1572.032      9343.762    1774.257
     1689.795      9423.041    1735.494      1712.977      9424.993    1771.379
     1828.080      9503.725    1733.484      1858.269      9506.691    1773.969
     1966.565      9584.356    1733.184      2000.458      9588.224    1773.766
     2105.359      9664.941    1734.443      2143.045      9669.936    1775.303
     2247.751      9745.976    1739.471      2282.991      9751.418    1773.555
     2383.661      9825.895    1738.016      2423.979      9833.171    1772.366
     2521.101      9905.814    1738.201      2564.195      9914.906    1772.283
     2664.524      9986.909    1744.323      2710.595      9998.262    1780.615
     2804.190     10067.046    1749.217      2851.167     10080.541    1787.248
     2945.448     10147.502    1755.473      2996.827     10164.670    1799.438
     3083.281     10226.569    1757.853      3138.499     10247.914    1809.118
     3223.088     10306.078    1759.965      3286.846     10334.351    1823.360
     3363.906     10385.901    1760.452      3413.567     10410.917    1811.208
     3505.925     10466.375    1760.100      3550.738     10491.755    1805.573
     3648.287     10547.242    1760.204      3680.698     10567.663    1793.135
     3784.575     10624.174    1757.458      3815.294     10645.467    1789.608
     3924.327     10703.317    1762.567      3962.531     10732.081    1806.718
     4063.521     10782.127    1771.884      4099.993     10811.529    1819.485
     4197.856     10856.927    1778.766      4235.839     10889.229    1832.227
     4342.015     10940.265    1803.577      4375.199     10969.578    1850.508
     4491.403     11028.813    1836.922      4522.095     11056.550    1878.688
     4623.876     11102.327    1843.977      4658.249     11133.719    1889.455
     4765.737     11184.518    1862.176      4798.360     11214.374    1904.053
     4919.082     11277.285    1895.568      4956.687     11311.645    1940.158
     5062.880     11361.324    1913.291      5101.604     11396.665    1955.673
     5197.051     11436.583    1914.120      5238.578     11474.506    1959.707
     5335.758     11515.974    1914.370      5373.729     11550.740    1960.510
     5479.330     11599.816    1919.494      5514.527     11632.190    1968.380
     5621.933     11682.785    1926.535      5653.309     11711.828    1973.733
     5761.687     11763.111    1926.186      5790.294     11789.819    1973.550
      238.340      8395.249    1729.814       238.591      8394.811    1765.708
      378.339      8476.282    1730.943       379.247      8475.962    1762.371
      518.142      8557.308    1731.014       520.006      8557.027    1763.140
      657.896      8638.295    1732.322       661.334      8638.067    1766.159
      796.942      8719.283    1730.080       802.156      8719.173    1762.432
      936.408      8800.232    1733.568       944.275      8800.277    1767.388
     1075.794      8881.176    1736.869      1087.419      8881.445    1774.368
     1215.145      8962.111    1739.292      1229.399      8962.629    1775.993
     1355.098      9043.066    1742.714      1374.147      9043.969    1783.229
     1495.988      9124.074    1746.628      1518.243      9125.362    1786.998
     1635.134      9204.979    1745.560      1658.664      9206.591    1782.707
     1773.244      9285.776    1742.044      1799.804      9287.898    1778.569
     1910.329      9366.425    1737.448      1940.259      9369.191    1773.673
     2046.797      9446.915    1733.889      2085.354      9451.025    1776.557
     2184.037      9527.356    1733.345      2222.958      9532.157    1773.032
     2325.963      9608.317    1737.648      2361.402      9613.397    1770.182
     2465.637      9688.928    1738.547      2511.029      9696.518    1775.065
     2602.989      9768.999    1737.646      2648.770      9777.937    1771.433
     2744.974      9849.855    1741.881      2794.948      9861.253    1778.214
     2880.110      9928.889    1742.174      2938.270      9944.397    1785.820
     3024.526     10010.196    1749.446      3085.231     10029.125    1797.659
     3164.298     10090.029    1752.661      3219.033     10109.930    1799.397
     3306.840     10170.789    1756.896      3364.653     10195.137    1809.571
     3449.783     10251.861    1759.858      3498.797     10275.564    1806.033
     3590.270     10331.822    1759.344      3644.836     10361.828    1811.124
     3732.227     10412.671    1761.047      3770.583     10436.383    1797.778
     3864.864     10487.367    1756.552      3899.074     10510.842    1790.630
     4003.989     10566.024    1762.535      4041.817     10594.433    1805.040
     4143.100     10644.715    1773.681      4177.375     10672.469    1817.509
     4283.274     10724.479    1790.626      4326.647     10761.654    1850.562
     4432.348     10812.471    1823.913      4465.129     10841.620    1870.113
     4569.895     10890.575    1842.036      4597.599     10915.706    1880.175
     4708.929     10970.105    1858.914      4738.505     10997.117    1898.225
     4858.242     11059.121    1886.352      4885.456     11083.932    1920.732
     5007.906     11148.431    1912.383      5039.522     11177.106    1948.109
     5138.664     11220.619    1913.323      5173.512     11252.068    1949.198
     5269.801     11293.236    1910.597      5312.226     11331.399    1953.948
     5412.977     11376.695    1915.756      5454.589     11414.090    1962.155
     5559.741     11463.371    1924.829      5595.900     11495.910    1970.023
     5700.651     11544.781    1929.004      5734.593     11575.441    1974.150
     5840.728     11625.427    1928.793      5871.497     11653.402    1974.025
      317.791      8257.636    1730.644       318.054      8257.177    1763.899
      457.808      8338.652    1733.356       458.763      8338.314    1763.719
      597.494      8419.695    1731.672       599.646      8419.376    1765.995
      737.316      8500.667    1734.031       741.148      8500.425    1768.556
      876.539      8581.645    1732.625       882.791      8581.533    1767.265
     1015.474      8662.593    1732.921      1023.560      8662.659    1763.274
     1154.939      8743.534    1736.170      1168.223      8743.862    1773.521
     1292.052      8824.388    1733.670      1308.196      8824.980    1770.275
     1431.672      8905.306    1737.443      1452.214      8906.265    1776.275
     1573.313      8986.333    1743.301      1597.436      8987.683    1782.113
     1716.013      9067.455    1747.790      1742.519      9069.187    1784.448
     1857.000      9148.498    1747.579      1884.690      9150.582    1780.767
     1992.344      9229.069    1740.802      2020.013      9231.458    1770.389
     2129.613      9309.709    1737.797      2166.460      9313.357    1774.573
     2266.363      9390.191    1736.535      2305.004      9394.598    1772.627
     2400.891      9470.237    1733.716      2445.914      9476.184    1772.072
     2540.941      9550.853    1734.302      2589.887      9558.371    1770.538
     2686.264      9632.340    1738.025      2738.126      9641.617    1772.894
     2823.118      9712.267    1737.897      2875.930      9723.295    1772.480
     2949.565      9789.291    1731.330      3020.339      9806.619    1779.313
     3093.476      9869.971    1735.969      3160.624      9889.326    1784.439
     3236.643      9950.456    1739.820      3303.807      9973.254    1791.948
     3383.221     10032.349    1746.079      3444.329     10056.672    1796.558
     3528.844     10114.372    1751.370      3585.580     10140.666    1799.946
     3671.964     10195.647    1754.693      3724.989     10224.007    1800.781
     3813.303     10276.195    1758.029      3862.402     10306.128    1801.257
     3950.017     10353.755    1760.265      3990.728     10381.632    1798.151
     4088.472     10432.191    1768.492      4129.538     10463.329    1812.382
     4222.976     10507.261    1777.057      4265.122     10542.109    1828.110
     4373.730     10596.327    1809.908      4427.187     10643.353    1878.704
     4521.098     10683.413    1842.392      4558.211     10717.101    1893.014
     4644.309     10748.512    1842.816      4681.609     10782.810    1893.643
     4787.242     10831.694    1867.196      4816.323     10858.402    1905.063
     4949.141     10932.224    1909.677      4975.757     10956.482    1941.611
     5088.194     11011.798    1919.988      5123.469     11043.653    1957.325
     5213.628     11079.239    1913.926      5257.659     11118.649    1956.313
     5346.374     11153.410    1912.124      5391.893     11193.854    1955.599
     5494.027     11240.841    1921.539      5537.706     11279.447    1966.653
     5636.746     11323.866    1925.840      5675.285     11357.842    1969.664
     5779.085     11406.543    1930.818      5815.764     11438.895    1974.470
     5919.533     11487.542    1930.552      5952.600     11516.818    1974.355
      397.241      8120.025    1730.465       397.550      8119.485    1765.696
      537.250      8201.029    1734.045       538.504      8200.589    1770.197
      677.047      8282.049    1734.730       679.692      8281.669    1772.863
      816.792      8363.032    1735.694       820.540      8362.810    1766.374
      956.729      8444.000    1737.407       962.562      8443.910    1766.302
     1094.968      8524.960    1733.623      1105.378      8525.063    1768.114
     1232.709      8605.859    1732.011      1249.705      8606.296    1774.289
     1371.650      8686.764    1734.528      1393.048      8687.552    1777.870
     1508.830      8767.579    1734.124      1532.968      8768.684    1775.130
     1649.644      8848.546    1739.101      1678.209      8850.085    1780.285
     1793.013      8929.682    1744.509      1822.207      8931.491    1780.125
     1934.033      9010.701    1744.536      1961.617      9012.649    1773.422
     2070.091      9091.333    1739.510      2105.078      9094.142    1772.307
     2211.959      9172.401    1740.966      2252.535      9176.109    1776.628
     2346.777      9252.765    1737.493      2391.373      9257.431    1774.448
     2482.181      9333.020    1734.636      2532.326      9339.065    1772.782
     2617.145      9413.009    1730.453      2673.637      9420.895    1767.871
     2757.475      9493.592    1730.176      2812.133      9502.438    1762.721
     2888.742      9572.368    1726.187      2950.286      9583.966    1761.890
     3021.912      9650.782    1723.176      3100.223      9668.170    1770.775
     3163.192      9730.446    1724.102      3242.609      9751.390    1776.036
     3310.085      9811.571    1728.354      3384.510      9834.952    1780.914
     3458.569      9893.661    1734.454      3525.996      9918.849    1784.960
     3601.686      9974.135    1737.423      3669.784     10004.247    1790.313
     3746.688     10055.757    1743.209      3806.383     10086.798    1790.532
     3892.245     10138.358    1751.891      3945.479     10170.526    1794.818
     4031.353     10217.415    1758.719      4079.318     10250.575    1800.107
     4166.579     10293.306    1766.086      4214.757     10330.858    1814.516
     4306.286     10372.403    1782.615      4362.072     10420.482    1846.734
     4445.802     10451.737    1804.183      4516.328     10516.906    1888.630
     4596.813     10542.622    1841.107      4638.723     10582.423    1896.366
     4727.147     10614.021    1853.349      4767.172     10652.077    1906.809
     4882.604     10709.112    1895.902      4916.835     10741.086    1938.997
     5034.723     10800.586    1924.493      5063.788     10827.211    1957.165
     5158.661     10866.343    1917.321      5194.143     10898.341    1952.435
     5285.734     10935.359    1912.426      5334.136     10978.432    1956.350
     5423.510     11014.099    1914.225      5474.658     11059.099    1960.793
     5569.461     11100.018    1921.022      5615.577     11140.201    1966.498
     5710.699     11181.778    1922.928      5755.879     11220.867    1971.450
     5855.215     11266.338    1929.124      5896.242     11301.707    1974.340
     5996.330     11347.933    1928.817      6033.190     11379.722    1974.256
      476.686      7982.422    1728.728       477.058      7981.772    1767.352
      616.676      8063.410    1733.238       618.063      8062.934    1768.852
      756.769      8144.381    1738.407       759.708      8143.973    1775.922
      896.732      8225.373    1739.452       901.511      8225.108    1774.202
     1036.278      8306.367    1737.543      1042.768      8306.286    1766.175
     1174.972      8387.333    1735.054      1186.062      8387.462    1767.865
     1311.659      8468.213    1730.822      1329.213      8468.679    1770.217
     1450.306      8549.107    1733.067      1473.582      8549.963    1776.055
     1587.866      8629.941    1733.866      1613.148      8631.072    1773.124
     1725.489      8710.749    1734.508      1756.404      8712.347    1775.030
     1864.712      8791.612    1735.467      1901.013      8793.739    1775.272
     2008.907      8872.783    1739.671      2046.600      8875.268    1774.847
     2146.235      8953.498    1736.864      2185.030      8956.375    1769.157
     2287.440      9034.472    1737.648      2329.211      9037.969    1770.107
     2427.744      9115.368    1737.465      2478.152      9120.159    1774.014
     2569.437      9196.407    1737.106      2629.934      9202.979    1777.276
     2700.421      9276.146    1728.957      2765.239      9284.254    1766.955
     2832.491      9355.681    1723.592      2891.931      9364.269    1754.534
     2957.445      9433.567    1716.548      3035.064      9446.566    1755.864
     3099.637      9513.678    1717.564      3198.977      9533.404    1772.043
     3243.110      9593.837    1718.707      3339.851      9616.917    1776.642
     3385.225      9673.495    1718.573      3471.254      9698.246    1774.231
     3531.343      9754.311    1721.725      3609.275      9781.360    1774.786
     3671.515      9832.970    1722.182      3745.429      9863.900    1774.432
     3817.053      9913.832    1728.680      3892.194      9951.683    1783.373
     3966.444      9997.652    1741.292      4023.323     10031.833    1783.693
     4102.376     10073.724    1746.886      4154.219     10110.351    1788.554
     4241.529     10151.465    1757.958      4303.176     10201.902    1816.175
     4389.664     10237.601    1783.227      4443.403     10287.156    1843.280
     4518.865     10306.993    1794.161      4603.267     10391.056    1895.627
     4682.012     10411.158    1848.070      4726.979     10457.158    1905.736
     4822.139     10491.920    1874.860      4866.731     10536.832    1933.044
     4976.181     10585.707    1915.873      5010.591     10618.910    1957.595
     5107.935     10657.738    1921.750      5143.468     10690.704    1959.522
     5232.200     10723.685    1916.588      5278.324     10765.338    1959.671
     5363.216     10796.303    1915.131      5413.720     10841.037    1958.974
     5506.244     10879.687    1920.621      5553.381     10920.800    1962.507
     5644.994     10959.351    1919.912      5688.790     10997.025    1962.541
     5785.257     11040.350    1919.669      5831.594     11079.746    1968.701
     5931.873     11126.683    1927.154      5973.777     11162.025    1971.589
     6073.614     11208.831    1926.813      6111.208     11240.431    1971.490
      556.116      7844.846    1724.815       556.520      7844.140    1763.364
      695.902      7925.854    1726.929       697.515      7925.319    1763.375
      835.701      8006.818    1731.136       838.769      8006.414    1765.338
      975.340      8087.785    1732.388       980.719      8087.510    1766.557
     1115.647      8168.736    1735.720      1123.474      8168.660    1766.381
     1254.271      8249.698    1733.427      1265.051      8249.843    1762.181
     1391.288      8330.585    1730.507      1408.445      8331.055    1765.794
     1528.228      8411.424    1729.916      1553.592      8412.353    1773.390
     1666.129      8492.272    1731.833      1695.702      8493.560    1774.452
     1803.193      8573.061    1732.060      1845.473      8575.147    1783.074
     1941.602      8653.886    1732.242      1987.234      8656.396    1778.341
     2084.314      8734.944    1735.402      2126.924      8737.544    1771.947
     2221.958      8815.679    1733.674      2263.118      8818.470    1765.147
     2364.892      8896.759    1735.409      2405.613      8899.840    1764.475
     2511.227      8978.163    1737.092      2562.438      8982.510    1770.228
     2657.408      9059.678    1736.307      2705.959      9064.334    1764.992
     2789.345      9139.811    1726.907      2852.117      9146.666    1760.163
     2911.612      9218.481    1716.443      2997.516      9229.291    1756.149
     3039.944      9297.233    1711.707      3133.898      9311.037    1754.045
     3180.325      9377.147    1711.283      3287.966      9396.051    1766.198
     3322.742      9457.150    1711.969      3431.203      9480.249    1772.307
     3457.514      9534.955    1707.576      3557.080      9560.822    1766.723
     3598.048      9613.488    1706.675      3697.230      9645.001    1767.902
     3741.495      9692.515    1708.844      3827.061      9725.892    1764.060
     3884.667      9771.062    1713.640      3960.512      9807.649    1764.736
     4035.381      9853.892    1727.006      4108.447      9897.390    1778.325
     4175.333      9931.006    1735.519      4247.488      9983.422    1790.940
     4315.161     10007.608    1745.794      4387.240     10070.573    1811.729
     4453.738     10083.324    1757.911      4515.336     10145.742    1827.371
     4587.789     10155.264    1772.514      4690.112     10269.435    1903.380
     4711.662     10217.840    1779.184      4825.003     10347.078    1923.992
     4920.668     10376.338    1894.948      4968.553     10428.723    1957.547
     5063.005     10457.053    1921.633      5101.449     10496.037    1967.806
     5184.367     10517.899    1918.291      5227.963     10559.251    1963.336
     5309.156     10584.105    1916.072      5361.306     10631.399    1962.897
     5444.312     10660.466    1918.861      5495.565     10705.616    1962.057
     5585.624     10742.344    1922.738      5625.771     10776.998    1958.041
     5722.490     10820.452    1919.593      5763.058     10854.855    1959.320
     5865.405     10903.735    1920.995      5906.427     10937.978    1964.916
     6013.284     10991.042    1929.255      6052.164     11023.107    1969.980
     6155.117     11073.269    1928.860      6189.986     11101.815    1969.835
      635.531      7707.296    1719.413       635.872      7706.699    1749.738
      775.153      7788.282    1721.748       776.604      7787.821    1750.598
      914.650      7869.244    1724.729       918.042      7868.823    1757.605
     1054.448      7950.166    1728.632      1060.978      7949.863    1764.988
     1194.355      8031.109    1730.863      1204.181      8031.044    1765.275
     1332.842      8112.052    1729.470      1345.736      8112.249    1760.701
     1471.027      8192.962    1729.694      1492.127      8193.557    1769.653
     1608.257      8273.820    1729.764      1635.059      8274.796    1772.595
     1745.052      8354.637    1730.150      1780.298      8356.122    1777.681
     1880.559      8435.371    1728.848      1920.711      8437.245    1774.138
     2018.384      8516.182    1728.611      2062.108      8518.409    1770.203
     2158.835      8597.108    1730.305      2201.888      8599.499    1765.193
     2300.237      8678.078    1731.757      2344.920      8680.796    1764.210
     2442.623      8759.111    1732.289      2489.333      8762.240    1764.263
     2593.521      8840.795    1733.735      2644.873      8844.601    1764.525
     2738.534      8922.173    1728.665      2788.164      8926.248    1755.700
     2877.925      9003.156    1720.886      2946.643      9009.382    1754.647
     3004.613      9082.871    1711.333      3086.292      9091.210    1746.648
     3134.340      9162.250    1706.589      3216.762      9172.616    1744.298
     3265.649      9241.238    1704.100      3368.326      9256.972    1754.854
     3402.493      9320.478    1703.745      3514.264      9341.417    1762.145
     3530.459      9397.020    1697.268      3635.141      9421.193    1754.063
     3669.120      9474.832    1696.048      3775.364      9505.171    1755.554
     3814.468      9554.043    1699.543      3900.629      9584.600    1750.325
     3953.615      9629.878    1701.606      4035.715      9666.999    1753.146
     4102.768      9709.569    1712.371      4191.768      9761.502    1772.687
     4249.398      9788.862    1723.984      4335.072      9852.631    1789.092
     4391.449      9865.267    1733.438      4464.674      9933.761    1801.222
     4532.733      9941.510    1744.387      4590.410     10007.281    1813.520
     4669.431     10012.239    1756.010      4713.556     10072.661    1822.460
     4792.732     10072.592    1763.281      4904.615     10226.867    1922.528
     5004.688     10248.832    1892.711      5045.760     10299.205    1949.414
     5137.689     10316.604    1908.204      5182.487     10364.682    1963.297
     5261.878     10379.023    1910.996      5314.842     10430.485    1965.514
     5393.658     10451.386    1918.034      5453.682     10505.984    1970.756
     5527.847     10526.777    1921.486      5576.646     10569.362    1961.780
     5657.901     10599.012    1916.651      5698.953     10633.911    1952.398
     5805.277     10686.066    1923.305      5844.966     10719.103    1962.200
     5951.241     10771.775    1927.822      5989.119     10802.717    1968.467
     6098.231     10858.177    1934.218      6134.528     10887.376    1971.984