NOECHO

-- =============================================================================
-- 
-- Exported from Reek_base_sim
-- 
-- Exported by user asny from RMS11 at 2020-02-19 16:55:03
-- 
-- =============================================================================

MAPUNITS
'METRES  ' /

MAPAXES
456514.891 5939177.894
456514.891 5927115.548
467218.248 5927115.548 /

GRIDUNIT
'METRES  ' '        ' /

SPECGRID
  40  64  14   1  F  /

GDORIENT
INC INC INC DOWN RIGHT /

COORD
        0.000      8808.114    1737.996         0.156      8807.777    1772.016
      140.035      8889.155    1739.311       140.835      8888.828    1771.083
      279.978      8970.187    1741.516       281.630      8969.852    1772.792
      419.818      9051.202    1743.616       422.851      9050.853    1777.891
      559.553      9132.200    1744.789       564.193      9131.900    1779.113
      699.146      9213.188    1744.917       705.367      9212.982    1776.717
      838.568      9294.161    1744.218       847.007      9294.071    1774.761
      977.763      9375.113    1743.091       988.996      9375.193    1773.492
     1116.563      9456.026    1741.002      1129.874      9456.336    1770.707
     1255.244      9536.895    1738.478      1271.949      9537.545    1771.979
     1393.442      9617.686    1735.485      1414.376      9618.840    1774.407
     1531.464      9698.392    1734.547      1555.123      9700.104    1773.848
     1669.591      9779.017    1735.893      1696.430      9781.469    1773.770
     1807.234      9859.476    1736.656      1834.518      9862.562    1769.065
     1945.423      9939.838    1737.740      1972.081      9943.548    1765.038
     2083.577     10020.000    1738.655      2112.192     10024.884    1765.066
     2221.414     10099.839    1739.106      2254.315     10106.712    1768.253
     2360.277     10179.604    1740.642      2396.838     10188.887    1773.569
     2500.708     10259.569    1744.379      2540.327     10271.655    1781.749
     2642.753     10339.997    1751.441      2684.423     10355.047    1791.722
     2783.288     10419.867    1757.606      2827.367     10438.415    1799.776
     2922.905     10499.223    1761.387      2969.654     10521.740    1804.980
     3062.628     10578.478    1763.008      3111.630     10605.044    1808.381
     3202.989     10657.986    1763.072      3250.972     10686.857    1807.789
     3343.170     10737.344    1761.726      3388.107     10767.010    1804.528
     3481.579     10815.402    1759.301      3525.674     10847.044    1802.302
     3620.100     10893.379    1759.460      3663.652     10927.027    1803.484
     3759.853     10972.309    1763.339      3803.478     11008.221    1810.812
     3901.273     11052.851    1771.386      3940.530     11086.876    1819.157
     4041.432     11132.594    1784.129      4079.148     11166.604    1833.219
     4185.530     11216.245    1809.062      4226.133     11253.897    1860.166
     4330.882     11301.461    1835.138      4378.806     11346.677    1891.929
     4467.867     11378.990    1847.740      4518.753     11427.416    1907.254
     4612.433     11463.853    1869.364      4661.044     11510.240    1927.574
     4760.972     11552.577    1898.580      4802.752     11592.454    1949.325
     4903.839     11635.906    1916.637      4943.461     11673.734    1961.735
     5042.872     11715.576    1923.271      5081.016     11752.062    1965.884
     5181.008     11794.382    1923.921      5215.943     11827.899    1966.296
     5321.420     11875.359    1925.539      5353.188     11905.966    1969.001
     5462.582     11957.055    1929.388      5490.621     11984.216    1972.094
     5603.386     12038.400    1929.176      5627.936     12062.346    1971.970
       79.449      8670.477    1738.036        79.643      8670.137    1772.035
      219.516      8751.515    1739.348       220.349      8751.188    1771.125
      359.499      8832.545    1741.548       361.202      8832.210    1772.830
      499.396      8913.558    1743.657       502.511      8913.215    1777.895
      639.208      8994.558    1744.833       643.919      8994.269    1779.126
      778.892      9075.547    1744.952       785.122      9075.359    1776.739
      918.459      9156.526    1744.256       926.922      9156.450    1774.783
     1057.710      9237.487    1743.128      1068.977      9237.578    1773.491
     1196.544      9318.414    1741.054      1209.672      9318.718    1770.730
     1335.335      9399.299    1738.506      1351.371      9399.909    1771.983
     1473.684      9480.120    1735.547      1493.374      9481.167    1774.403
     1612.031      9560.876    1734.637      1633.889      9562.392    1773.854
     1750.607      9641.580    1735.939      1775.176      9643.723    1773.766
     1889.059      9722.186    1736.735      1913.916      9724.866    1769.076
     2028.404      9802.793    1737.850      2052.496      9805.987    1765.058
     2167.498      9883.254    1738.746      2193.562      9887.502    1765.106
     2306.189      9963.476    1739.255      2336.711      9969.586    1768.347
     2445.735     10043.678    1740.848      2480.127     10052.090    1773.739
     2586.636     10124.105    1744.787      2624.022     10135.149    1782.048
     2728.483     10204.828    1751.829      2768.213     10218.784    1791.965
     2869.173     10285.148    1757.940      2912.142     10302.803    1800.030
     3009.222     10365.113    1761.612      3054.664     10386.562    1805.232
     3149.401     10445.029    1763.175      3196.286     10470.017    1808.513
     3290.106     10525.167    1763.132      3335.072     10551.839    1807.823
     3430.731     10605.248    1761.639      3472.507     10632.511    1804.547
     3570.031     10684.400    1759.282      3611.081     10713.588    1802.451
     3708.680     10762.961    1759.662      3749.300     10794.129    1803.891
     3847.214     10841.342    1763.751      3887.636     10874.451    1811.304
     3986.729     10920.574    1771.872      4022.319     10951.308    1819.478
     4125.385     10999.176    1784.831      4158.771     11029.193    1833.409
     4267.949     11081.521    1809.718      4302.895     11113.840    1859.552
     4411.135     11164.741    1835.274      4452.802     11203.939    1890.771
     4547.763     11241.957    1847.784      4593.272     11285.112    1906.678
     4692.167     11326.655    1869.434      4735.897     11368.197    1926.872
     4839.480     11414.180    1898.377      4877.037     11449.820    1948.334
     4981.547     11496.733    1916.453      5018.932     11532.183    1961.444
     5121.222     11577.021    1923.244      5158.020     11611.947    1965.930
     5260.451     11656.881    1923.934      5294.341     11689.118    1966.462
     5401.619     11738.582    1925.581      5432.540     11768.099    1969.159
     5542.980     11820.468    1929.407      5570.626     11846.987    1972.230
     5683.400     11901.445    1929.193      5708.020     11925.214    1972.100
      158.889      8532.884    1735.573       159.135      8532.455    1771.272
      298.912      8613.914    1737.010       299.860      8613.539    1768.736
      438.858      8694.934    1739.377       440.789      8694.563    1770.582
      578.692      8775.942    1741.293       582.416      8775.553    1777.205
      718.469      8856.934    1742.646       723.784      8856.635    1776.738
      858.141      8937.918    1743.161       864.736      8937.743    1772.756
      997.385      9018.896    1741.980      1006.128      9018.839    1769.968
     1136.424      9099.850    1741.089      1148.774      9099.960    1771.118
     1274.893      9180.764    1738.983      1288.316      9181.066    1766.914
     1414.371      9261.672    1738.297      1431.397      9262.276    1771.627
     1551.980      9342.468    1734.271      1573.312      9343.507    1774.233
     1689.940      9423.211    1732.710      1712.501      9424.628    1771.707
     1829.628      9504.013    1735.496      1854.731      9505.979    1773.191
     1967.202      9584.574    1734.615      1990.781      9586.846    1764.820
     2107.673      9665.329    1736.639      2130.055      9667.983    1761.789
     2246.833      9745.849    1736.900      2272.769      9749.649    1763.095
     2385.135      9826.063    1736.333      2416.509      9831.762    1765.818
     2524.714      9906.309    1737.347      2558.820      9913.961    1768.890
     2664.343      9986.390    1739.603      2702.959      9996.979    1776.094
     2806.924     10067.261    1746.462      2846.879     10080.431    1784.359
     2948.392     10147.847    1752.250      2991.477     10164.616    1791.993
     3088.585     10227.881    1755.364      3132.991     10247.911    1796.195
     3229.427     10308.125    1757.292      3278.150     10333.146    1803.205
     3370.047     10388.214    1757.370      3415.332     10414.298    1801.671
     3510.605     10468.233    1756.287      3551.777     10494.512    1797.766
     3649.021     10546.754    1753.628      3690.244     10575.606    1795.799
     3786.915     10624.682    1753.787      3827.091     10655.187    1796.347
     3925.198     10702.770    1758.393      3966.871     10736.681    1806.876
     4066.192     10783.198    1770.293      4099.167     10811.565    1814.587
     4200.559     10857.972    1779.024      4233.331     10887.364    1827.624
     4345.628     10942.542    1808.984      4375.097     10969.728    1852.410
     4494.187     11030.791    1843.321      4533.057     11067.232    1896.855
     4624.919     11102.497    1848.331      4668.195     11143.326    1905.557
     4768.250     11186.179    1868.708      4810.730     11226.232    1924.239
     4922.440     11280.121    1905.603      4962.147     11317.418    1955.569
     5062.853     11361.092    1920.863      5098.784     11394.729    1961.941
     5198.271     11437.406    1922.708      5233.931     11470.735    1962.285
     5335.786     11515.686    1920.741      5369.897     11547.573    1961.606
     5477.180     11597.584    1921.755      5508.630     11627.035    1963.734
     5619.320     11680.174    1926.048      5648.047     11707.167    1967.479
     5759.942     11761.333    1925.830      5785.692     11785.654    1967.302
      238.350      8395.253    1735.052       238.643      8394.741    1771.507
      378.318      8476.313    1734.329       379.469      8475.844    1768.823
      518.262      8557.318    1737.358       520.591      8556.867    1770.939
      658.105      8638.318    1739.621       661.824      8637.935    1771.221
      797.659      8719.318    1739.954       803.418      8719.007    1772.167
      936.722      8800.310    1738.832       943.626      8800.139    1765.613
     1075.062      8881.277    1736.756      1085.030      8881.222    1764.499
     1214.605      8962.214    1738.536      1226.804      8962.320    1764.855
     1354.765      9043.156    1740.643      1371.899      9043.514    1772.807
     1494.201      9124.077    1740.462      1514.308      9124.725    1776.187
     1635.240      9205.052    1742.716      1656.540      9205.979    1779.152
     1773.536      9285.890    1741.260      1796.896      9287.189    1778.417
     1909.870      9366.540    1737.977      1933.384      9368.161    1770.729
     2046.973      9447.126    1735.808      2070.550      9449.119    1764.181
     2188.192      9527.994    1738.094      2212.294      9530.502    1763.955
     2326.864      9608.531    1737.078      2352.667      9611.865    1762.103
     2465.586      9688.912    1735.926      2497.602      9694.089    1764.367
     2606.049      9769.434    1736.914      2646.097      9777.538    1771.001
     2748.016      9850.251    1740.528      2790.250      9860.835    1776.093
     2888.210      9930.611    1743.802      2928.223      9942.816    1777.209
     3024.665     10009.485    1743.811      3062.349     10023.217    1775.062
     3164.174     10089.049    1745.307      3207.954     10107.750    1782.516
     3309.584     10171.264    1750.975      3358.424     10195.302    1794.521
     3453.256     10253.050    1754.611      3498.925     10278.562    1797.179
     3591.252     10331.645    1752.438      3636.159     10359.749    1795.190
     3731.981     10411.788    1753.596      3774.338     10441.121    1794.160
     3869.392     10489.512    1754.759      3914.580     10523.695    1799.664
     4008.795     10568.633    1762.350      4052.138     10603.954    1810.472
     4147.443     10647.209    1774.164      4182.064     10677.158    1818.960
     4289.922     10729.369    1797.289      4320.626     10757.086    1841.508
     4435.036     10814.327    1828.499      4464.206     10841.351    1870.907
     4573.298     10893.113    1848.536      4605.183     10923.044    1892.479
     4707.383     10968.016    1858.569      4744.857     11003.304    1907.773
     4857.377     11057.964    1887.551      4893.334     11091.696    1932.821
     5006.064     11146.632    1915.178      5042.541     11180.633    1956.902
     5137.405     11219.159    1918.768      5172.790     11251.938    1955.794
     5272.784     11295.510    1920.399      5304.799     11325.030    1953.466
     5415.554     11378.688    1923.820      5443.854     11404.710    1955.615
     5555.966     11459.682    1923.315      5584.527     11485.927    1959.157
     5697.131     11541.356    1925.798      5726.245     11568.146    1964.878
     5837.977     11622.724    1925.638      5864.031     11646.782    1964.633
      317.838      8257.574    1736.213       318.110      8257.100    1766.128
      457.929      8338.624    1736.595       459.118      8338.130    1768.778
      597.891      8419.658    1737.667       600.361      8419.177    1769.733
      737.199      8500.726    1735.042       741.567      8500.281    1767.971
      876.289      8581.733    1734.593       883.023      8581.378    1767.464
     1015.492      8662.698    1735.970      1023.840      8662.498    1763.974
     1154.703      8743.650    1737.480      1165.952      8743.588    1764.734
     1292.886      8824.584    1736.799      1307.259      8824.696    1764.229
     1431.833      8905.499    1737.507      1453.065      8905.894    1773.047
     1571.827      8986.424    1739.163      1595.833      8987.105    1776.996
     1714.594      9067.449    1744.236      1738.605      9068.362    1780.232
     1856.176      9148.464    1747.413      1881.191      9149.669    1782.058
     1993.396      9229.248    1744.682      2021.860      9230.938    1779.481
     2129.747      9309.887    1740.844      2159.769      9312.067    1773.117
     2266.327      9390.409    1737.586      2296.737      9393.127    1767.401
     2405.574      9471.040    1736.547      2436.346      9474.467    1764.030
     2544.010      9551.434    1734.124      2580.800      9556.603    1763.736
     2687.287      9632.461    1736.274      2730.183      9640.102    1768.521
     2829.546      9713.425    1738.790      2876.450      9723.926    1772.601
     2964.847      9792.582    1737.098      3010.952      9805.337    1769.687
     3099.413      9870.806    1734.560      3145.354      9886.212    1767.528
     3238.519      9949.949    1734.418      3285.095      9968.538    1769.847
     3382.469     10030.974    1738.015      3436.635     10056.295    1782.546
     3531.876     10115.260    1747.032      3581.518     10142.044    1790.058
     3672.184     10195.170    1748.467      3720.653     10224.933    1790.941
     3813.435     10275.681    1751.868      3861.823     10308.996    1794.371
     3952.714     10354.873    1756.749      4001.805     10392.163    1801.673
     4093.409     10435.222    1767.955      4135.123     10469.642    1811.141
     4227.301     10509.808    1777.477      4261.783     10540.230    1819.041
     4379.947     10601.438    1816.257      4421.174     10639.482    1870.860
     4522.340     10684.254    1844.784      4560.351     10720.056    1897.724
     4648.438     10751.629    1849.362      4688.602     10789.704    1903.901
     4790.996     10834.591    1872.703      4826.854     10868.447    1918.458
     4947.805     10930.911    1909.176      4980.273     10961.301    1947.267
     5085.898     11009.605    1921.261      5118.790     11040.101    1955.335
     5210.720     11076.172    1917.173      5244.918     11107.591    1949.641
     5347.129     11153.557    1918.947      5376.439     11180.273    1946.930
     5492.448     11239.060    1923.975      5522.841     11266.595    1956.148
     5632.298     11319.576    1922.163      5665.949     11349.944    1962.360
     5775.303     11402.920    1926.298      5806.946     11431.437    1966.413
     5916.314     11484.443    1926.036      5944.757     11510.111    1966.250
      397.284      8119.970    1731.606       397.557      8119.494    1758.686
      537.408      8200.986    1734.154       538.664      8200.463    1765.042
      677.394      8282.020    1735.451       679.899      8281.533    1765.004
      817.020      8363.060    1735.333       821.575      8362.600    1766.266
      956.042      8444.089    1734.559       962.692      8443.743    1763.353
     1094.441      8525.084    1733.826      1103.268      8524.875    1759.911
     1233.097      8606.035    1735.015      1245.353      8605.963    1761.379
     1371.908      8686.969    1736.461      1389.341      8687.082    1766.317
     1508.696      8767.855    1734.555      1531.626      8768.225    1768.884
     1648.397      8848.763    1736.643      1676.391      8849.447    1775.322
     1790.624      8929.744    1741.113      1820.367      8930.710    1779.137
     1934.495      9010.818    1746.691      1965.916      9012.105    1783.227
     2074.408      9091.753    1746.877      2108.717      9093.478    1782.345
     2211.676      9172.514    1743.801      2247.975      9174.738    1777.274
     2349.981      9253.269    1741.493      2388.375      9256.157    1774.156
     2487.764      9333.895    1738.000      2526.261      9337.499    1768.038
     2625.079      9414.317    1733.499      2668.604      9419.482    1764.189
     2767.397      9495.238    1733.612      2814.160      9502.356    1763.831
     2905.073      9575.325    1732.037      2961.054      9586.193    1765.800
     3036.220      9653.457    1727.271      3095.844      9668.043    1762.308
     3176.184      9733.068    1727.080      3229.371      9749.156    1759.397
     3313.701      9811.506    1724.590      3358.188      9827.834    1754.219
     3456.113      9891.391    1726.060      3511.991      9915.933    1767.693
     3605.876      9975.097    1735.343      3655.766     10000.955    1775.011
     3749.093     10056.205    1740.319      3800.767     10087.349    1781.522
     3894.445     10139.198    1748.583      3946.650     10175.138    1790.449
     4032.180     10217.209    1754.146      4084.938     10257.888    1798.455
     4174.180     10298.566    1768.271      4219.406     10336.954    1811.769
     4311.958     10376.535    1784.814      4354.151     10415.199    1832.750
     4449.645     10454.537    1807.244      4512.758     10515.294    1884.521
     4597.340     10542.649    1842.010      4639.557     10583.980    1898.572
     4729.340     10615.467    1856.454      4771.709     10656.769    1913.093
     4883.147     10709.355    1896.262      4919.710     10744.320    1941.455
     5030.764     10796.915    1920.307      5063.197     10827.343    1955.662
     5153.078     10860.911    1914.861      5190.519     10895.518    1950.400
     5281.992     10931.399    1914.387      5324.094     10969.828    1951.112
     5426.459     11016.181    1922.219      5464.912     11050.892    1956.672
     5569.980     11100.048    1924.814      5605.128     11131.473    1960.552
     5710.748     11181.427    1923.529      5744.668     11211.524    1962.947
     5854.901     11265.774    1928.523      5886.143     11293.363    1966.663
     5996.048     11347.431    1928.250      6024.142     11372.205    1966.508
      476.686      7982.444    1723.317       476.951      7981.980    1747.329
      616.634      8063.450    1725.817       617.850      8062.949    1753.007
      756.650      8144.427    1730.046       759.257      8143.928    1758.223
      896.745      8225.404    1734.009       901.597      8224.922    1764.325
     1035.856      8306.443    1733.962      1043.497      8306.052    1764.038
     1174.789      8387.439    1735.187      1186.515      8387.163    1766.535
     1312.100      8468.420    1733.641      1325.967      8468.329    1760.875
     1449.527      8549.351    1733.454      1469.001      8549.446    1764.143
     1588.237      8630.265    1735.234      1612.859      8630.596    1768.757
     1726.904      8711.168    1736.433      1757.353      8711.792    1773.465
     1863.872      8792.003    1735.144      1896.713      8792.894    1770.940
     2008.540      8873.047    1741.287      2044.875      8874.282    1776.765
     2151.246      8954.061    1744.076      2189.729      8955.665    1777.577
     2294.747      9035.146    1745.844      2335.832      9037.229    1777.853
     2436.444      9116.186    1744.628      2475.360      9118.597    1772.439
     2576.695      9197.168    1741.070      2620.338      9200.515    1769.949
     2709.047      9277.405    1732.155      2754.897      9281.884    1760.205
     2847.153      9357.937    1728.655      2901.504      9364.850    1758.629
     2981.330      9437.594    1724.818      3041.921      9447.528    1755.178
     3109.824      9515.364    1718.866      3180.350      9530.229    1753.599
     3254.921      9596.070    1720.464      3320.485      9613.587    1754.211
     3392.540      9674.605    1717.388      3449.498      9693.519    1750.280
     3531.206      9752.791    1715.712      3584.443      9774.490    1751.139
     3672.876      9831.729    1718.939      3728.424      9859.187    1758.935
     3819.801      9913.615    1727.176      3874.502      9945.934    1766.906
     3967.713      9997.308    1738.056      4024.292     10036.474    1780.106
     4101.831     10071.629    1742.230      4163.429     10120.461    1790.331
     4246.483     10154.280    1758.470      4302.116     10203.839    1808.755
     4396.635     10243.549    1787.931      4436.711     10282.639    1832.356
     4522.587     10309.782    1797.631      4599.029     10388.446    1891.067
     4683.671     10412.516    1850.303      4724.328     10455.002    1903.128
     4824.520     10493.967    1877.694      4864.797     10535.264    1930.596
     4974.977     10584.445    1913.779      5007.708     10616.620    1953.222
     5106.766     10656.494    1920.488      5141.801     10689.671    1956.818
     5228.620     10719.992    1915.356      5272.585     10760.603    1954.466
     5360.210     10793.021    1916.638      5406.449     10834.986    1954.647
     5503.101     10876.397    1922.230      5549.401     10917.821    1962.199
     5645.806     10959.565    1923.613      5682.738     10992.179    1960.437
     5790.248     11044.209    1926.017      5822.613     11072.467    1963.204
     5935.287     11129.295    1931.694      5965.710     11155.633    1967.868
     6076.650     11211.146    1931.394      6103.923     11234.648    1967.692
      556.106      7844.884    1717.948       556.404      7844.363    1742.932
      695.912      7925.889    1719.709       697.122      7925.400    1744.527
      835.761      8006.859    1723.631       838.642      8006.320    1752.467
      975.437      8087.848    1726.344       981.195      8087.288    1760.074
     1115.003      8168.832    1730.505      1124.241      8168.366    1764.302
     1255.105      8249.796    1735.649      1268.070      8249.489    1767.760
     1392.046      8330.802    1733.512      1407.929      8330.682    1762.685
     1528.441      8411.748    1732.040      1547.918      8411.806    1761.038
     1667.095      8492.675    1734.072      1693.723      8492.950    1767.905
     1805.469      8573.591    1735.198      1839.233      8574.135    1772.356
     1941.167      8654.429    1733.270      1980.159      8655.262    1770.676
     2080.910      8735.315    1734.781      2126.224      8736.536    1773.264
     2223.152      8816.257    1737.229      2267.019      8817.715    1770.388
     2370.466      8897.413    1740.884      2407.045      8898.898    1765.420
     2519.502      8978.763    1742.315      2559.009      8980.722    1766.329
     2665.942      9060.160    1740.130      2707.912      9062.729    1764.050
     2795.697      9140.516    1728.811      2847.864      9144.586    1757.004
     2927.993      9220.714    1721.740      2994.435      9227.631    1753.485
     3057.526      9300.008    1715.825      3132.962      9310.310    1748.306
     3191.497      9379.066    1712.627      3274.036      9393.777    1748.499
     3334.738      9459.374    1713.558      3415.173      9477.996    1749.681
     3472.490      9538.109    1711.059      3545.890      9559.782    1747.923
     3608.198      9615.267    1707.909      3674.720      9640.050    1746.872
     3745.497      9691.750    1708.269      3806.999      9720.385    1747.777
     3888.079      9769.913    1713.083      3946.872      9803.759    1752.467
     4035.091      9851.181    1722.847      4091.967      9890.887    1763.036
     4169.044      9923.221    1727.293      4237.476      9979.712    1778.464
     4317.060     10007.153    1744.677      4378.802     10066.153    1798.811
     4457.567     10085.773    1760.472      4506.522     10138.061    1815.212
     4589.936     10156.604    1774.574      4685.537     10265.985    1898.181
     4714.624     10220.225    1782.060      4821.172     10343.167    1919.565
     4921.825     10377.357    1895.861      4965.763     10425.898    1953.756
     5061.400     10455.299    1919.202      5098.258     10493.176    1963.744
     5183.082     10516.428    1916.725      5226.835     10558.650    1961.357
     5305.532     10580.333    1913.797      5356.375     10627.417    1957.410
     5444.365     10660.029    1921.234      5494.292     10705.064    1961.011
     5585.721     10741.983    1926.068      5628.855     10780.174    1962.855
     5727.596     10824.380    1927.754      5764.918     10856.888    1964.677
     5872.781     10909.601    1931.877      5906.097     10938.195    1969.874
     6017.491     10994.324    1936.804      6048.564     11020.675    1972.892
     6159.146     11076.407    1936.533      6186.790     11099.665    1972.812
      635.562      7707.262    1716.057       635.884      7706.700    1741.881
      775.304      7788.276    1716.867       776.711      7787.725    1743.818
      915.034      7869.256    1719.889       918.279      7868.669    1750.318
     1054.498      7950.253    1722.236      1059.657      7949.767    1750.622
     1193.054      8031.273    1723.674      1202.759      8030.794    1757.212
     1332.038      8112.235    1727.791      1347.637      8111.860    1764.237
     1470.451      8193.199    1730.081      1488.892      8193.035    1762.219
     1608.220      8274.156    1731.254      1629.840      8274.165    1762.191
     1749.642      8355.124    1736.523      1779.015      8355.316    1772.113
     1885.672      8436.055    1734.460      1922.203      8436.452    1772.148
     2020.747      8516.937    1732.090      2068.579      8517.643    1774.497
     2156.961      8597.780    1731.005      2204.045      8598.680    1767.655
     2297.622      8678.667    1732.219      2346.326      8679.849    1765.781
     2443.678      8759.692    1733.758      2490.171      8761.110    1761.836
     2597.698      8841.084    1735.307      2648.525      8843.016    1762.788
     2741.243      8922.231    1728.796      2798.328      8924.924    1757.865
     2880.111      9003.226    1720.763      2947.695      9007.240    1753.663
     3005.484      9083.188    1710.021      3085.047      9089.500    1744.647
     3135.242      9162.713    1703.944      3218.542      9171.868    1739.259
     3276.707      9243.064    1705.041      3361.131      9255.646    1739.903
     3415.323      9322.759    1705.636      3493.837      9338.291    1738.169
     3549.984      9400.950    1703.693      3634.993      9422.900    1741.948
     3689.418      9479.448    1704.090      3752.748      9500.596    1737.061
     3828.928      9557.144    1706.172      3900.778      9587.918    1747.764
     3966.488      9632.533    1707.301      4036.963      9671.375    1751.365
     4107.112      9708.218    1711.902      4169.001      9751.643    1753.697
     4250.068      9785.532    1721.450      4313.982      9840.893    1768.338
     4394.147      9864.875    1733.734      4452.670      9925.717    1785.445
     4534.769      9942.062    1745.827      4580.520      9997.354    1799.668
     4669.888     10011.914    1756.383      4707.207     10064.353    1812.419
     4794.187     10073.938    1764.607      4904.262     10226.660    1920.295
     5001.284     10244.188    1886.549      5047.830     10301.456    1950.885
     5137.158     10315.735    1906.756      5181.992     10364.272    1962.371
     5263.393     10380.237    1911.735      5311.509     10427.705    1961.015
     5392.465     10449.972    1916.449      5440.216     10494.313    1956.896
     5530.725     10528.980    1924.489      5578.991     10572.136    1962.538
     5668.231     10607.450    1927.906      5716.372     10649.468    1969.028
     5813.935     10693.063    1935.143      5855.658     10728.774    1976.061
     5957.077     10776.397    1938.758      5991.834     10805.630    1977.646
     6101.245     10860.542    1942.364      6133.611     10887.368    1979.089