NOECHO

-- =============================================================================
-- 
-- Exported from Reek_base_sim
-- 
-- Exported by user asny from RMS11 at 2020-02-19 16:55:30
-- 
-- =============================================================================

MAPUNITS
'METRES  ' /

MAPAXES
456514.881 5939175.185
456514.881 5927115.548
467218.351 5927115.548 /

GRIDUNIT
'METRES  ' '        ' /

SPECGRID
  40  64  14   1  F  /

GDORIENT
INC INC INC DOWN RIGHT /

COORD
        0.000      8808.129    1738.883         0.178      8807.755    1770.828
      140.023      8889.171    1739.027       140.901      8888.803    1771.091
      279.940      8970.204    1739.429       281.760      8969.827    1773.599
      419.735      9051.220    1740.768       422.931      9050.848    1778.776
      559.432      9132.219    1742.552       564.318      9131.898    1781.976
      699.034      9213.205    1744.023       705.634      9212.983    1779.927
      838.439      9294.178    1744.552       847.375      9294.079    1778.079
      977.805      9375.130    1744.530       989.537      9375.211    1776.977
     1116.624      9456.049    1742.715      1130.722      9456.375    1774.296
     1254.832      9536.901    1739.902      1272.284      9537.581    1773.962
     1393.252      9617.698    1738.265      1414.453      9618.873    1775.329
     1531.625      9698.423    1738.214      1554.955      9700.127    1774.411
     1670.521      9779.115    1739.876      1696.269      9781.498    1775.979
     1808.456      9859.620    1739.557      1835.534      9862.726    1771.391
     1945.479      9939.846    1738.550      1973.251      9943.755    1766.080
     2083.989     10020.070    1740.282      2115.215     10025.440    1768.073
     2221.579     10099.885    1741.643      2256.412     10107.170    1771.057
     2360.034     10179.577    1743.752      2397.734     10189.103    1775.629
     2500.921     10259.693    1748.679      2541.797     10272.042    1783.583
     2642.328     10339.912    1755.326      2685.052     10355.158    1791.276
     2782.474     10419.586    1760.699      2828.064     10438.549    1798.923
     2922.588     10499.103    1764.488      2970.267     10521.865    1803.949
     3062.208     10578.237    1765.489      3110.779     10604.433    1804.552
     3202.317     10657.528    1764.893      3249.491     10685.847    1802.438
     3342.655     10736.928    1763.667      3385.479     10765.182    1798.801
     3481.943     10815.595    1762.453      3519.913     10842.830    1795.635
     3620.939     10893.978    1763.053      3658.272     10922.803    1798.533
     3759.957     10972.366    1766.308      3799.416     11004.818    1807.880
     3900.759     11052.376    1773.987      3939.376     11085.827    1819.784
     4041.307     11132.439    1787.029      4081.972     11169.105    1838.670
     4185.073     11215.766    1811.259      4231.416     11258.754    1867.880
     4330.383     11300.928    1836.859      4380.575     11348.301    1894.378
     4467.019     11378.119    1849.305      4519.297     11427.873    1908.172
     4610.999     11462.421    1870.183      4660.513     11509.649    1926.709
     4758.988     11550.621    1897.687      4802.525     11592.133    1947.604
     4903.015     11635.058    1916.560      4944.603     11674.705    1961.452
     5042.127     11714.813    1923.562      5081.670     11752.560    1966.216
     5180.857     11794.202    1925.589      5214.613     11826.506    1965.762
     5321.151     11875.079    1928.027      5350.583     11903.352    1967.728
     5461.982     11956.464    1932.357      5487.671     11981.267    1970.770
     5602.560     12037.598    1932.122      5625.237     12059.637    1970.633
       79.457      8670.480    1738.908        79.669      8670.108    1770.857
      219.523      8751.522    1739.055       220.427      8751.159    1771.127
      359.490      8832.557    1739.474       361.339      8832.185    1773.642
      499.375      8913.570    1740.823       502.594      8913.209    1778.804
      639.191      8994.569    1742.599       644.061      8994.267    1781.979
      778.899      9075.560    1744.060       785.401      9075.358    1779.949
      918.408      9156.542    1744.608       927.262      9156.459    1778.104
     1057.834      9237.507    1744.563      1069.452      9237.597    1776.980
     1196.703      9318.440    1742.761      1210.475      9318.757    1774.307
     1334.958      9399.309    1739.962      1351.761      9399.948    1773.968
     1473.481      9480.131    1738.330      1493.699      9481.214    1775.328
     1612.102      9560.900    1738.291      1634.484      9562.472    1774.412
     1751.416      9641.665    1739.906      1776.833      9643.918    1776.007
     1890.289      9722.327    1739.605      1916.439      9725.195    1771.325
     2028.526      9802.811    1738.697      2054.469      9806.305    1766.099
     2167.990      9883.336    1740.425      2196.870      9888.094    1768.124
     2306.492      9963.543    1741.827      2338.636      9970.006    1771.122
     2445.785     10043.713    1744.034      2480.217     10052.109    1775.774
     2587.241     10124.320    1749.119      2624.458     10135.217    1783.760
     2728.940     10205.022    1755.731      2769.230     10219.014    1791.504
     2869.397     10285.256    1761.076      2913.382     10303.137    1799.212
     3009.821     10365.379    1764.723      3055.658     10386.853    1804.124
     3149.930     10445.254    1765.607      3195.475     10469.442    1804.573
     3290.526     10525.325    1764.946      3333.863     10551.025    1802.462
     3431.276     10605.501    1763.617      3470.207     10630.939    1798.717
     3570.938     10684.951    1762.501      3605.463     10709.532    1795.780
     3709.715     10763.685    1763.244      3743.859     10789.898    1799.023
     3847.401     10841.451    1766.677      3883.430     10870.955    1808.420
     3986.271     10920.140    1774.509      4021.055     10950.172    1820.174
     4125.194     10998.957    1787.698      4161.133     11031.282    1838.763
     4267.679     11081.210    1811.942      4307.339     11117.920    1866.995
     4410.913     11164.466    1837.031      4454.294     11205.310    1893.393
     4547.170     11241.319    1849.374      4593.233     11285.021    1907.580
     4690.737     11325.224    1870.242      4734.590     11366.882    1925.994
     4837.379     11412.114    1897.472      4876.045     11448.787    1946.500
     4980.511     11495.684    1916.352      5019.646     11532.750    1961.085
     5120.246     11576.037    1923.524      5158.730     11612.500    1966.263
     5260.067     11656.471    1925.598      5293.217     11687.936    1965.950
     5401.305     11738.250    1928.069      5430.190     11765.751    1967.901
     5542.583     11820.065    1932.375      5568.117     11844.484    1970.912
     5682.929     11900.982    1932.137      5705.768     11922.958    1970.771
      158.909      8532.864    1737.264       159.156      8532.434    1769.232
      298.959      8613.906    1737.347       299.947      8613.505    1768.940
      438.829      8694.950    1736.578       440.882      8694.547    1770.604
      578.647      8775.957    1737.549       582.289      8775.569    1776.026
      718.511      8856.943    1739.842       723.870      8856.635    1778.843
      858.190      8937.931    1741.634       864.898      8937.747    1775.254
      997.227      9018.915    1741.195      1006.448      9018.849    1772.963
     1136.998      9099.876    1743.112      1149.624      9099.983    1775.567
     1275.495      9180.801    1741.246      1289.764      9181.119    1771.799
     1414.019      9261.684    1739.629      1431.927      9262.322    1773.768
     1552.025      9342.494    1737.345      1573.471      9343.552    1774.419
     1690.284      9423.250    1736.713      1713.351      9424.729    1771.874
     1830.499      9504.093    1739.054      1857.421      9506.257    1774.580
     1968.673      9584.717    1737.338      1993.978      9587.226    1766.561
     2107.305      9665.279    1736.566      2131.495      9668.223    1761.699
     2246.594      9745.805    1737.814      2275.429      9750.115    1765.171
     2384.213      9825.890    1737.905      2418.282      9832.148    1768.532
     2523.794      9906.111    1739.842      2558.137      9913.834    1770.973
     2665.562      9986.752    1744.588      2705.239      9997.570    1780.704
     2807.325     10067.417    1750.002      2848.025     10080.711    1784.878
     2948.437     10147.859    1754.975      2994.246     10165.550    1792.988
     3090.261     10228.583    1759.211      3136.833     10249.512    1797.905
     3230.074     10308.351    1759.778      3277.301     10332.633    1799.833
     3370.427     10388.283    1759.231      3413.216     10413.051    1796.686
     3511.001     10468.322    1758.315      3549.625     10493.130    1793.587
     3650.389     10547.564    1757.487      3682.592     10570.224    1788.702
     3787.606     10625.093    1757.257      3820.670     10650.280    1791.820
     3924.760     10702.340    1760.746      3961.198     10732.036    1803.106
     4065.207     10782.298    1772.232      4097.204     10809.849    1814.751
     4200.083     10857.483    1781.544      4235.421     10889.217    1832.885
     4344.967     10941.861    1810.373      4382.883     10976.899    1865.044
     4493.838     11030.394    1844.497      4533.317     11067.464    1898.008
     4623.480     11101.049    1848.750      4667.441     11142.570    1906.119
     4766.565     11184.500    1869.397      4808.957     11224.496    1923.749
     4918.983     11276.787    1903.219      4959.842     11315.171    1953.089
     5062.215     11360.410    1921.288      5099.359     11395.167    1961.951
     5197.312     11436.435    1923.258      5235.322     11471.928    1963.492
     5335.542     11515.399    1922.797      5368.971     11546.604    1961.269
     5477.035     11597.403    1924.267      5506.517     11624.959    1962.432
     5619.354     11680.175    1928.907      5645.618     11704.793    1965.569
     5759.933     11761.307    1928.679      5783.543     11783.546    1965.406
      238.374      8395.227    1736.099       238.654      8394.738    1768.652
      378.392      8476.292    1734.857       379.529      8475.819    1768.257
      518.223      8557.335    1734.286       520.527      8556.881    1768.734
      658.001      8638.338    1735.083       661.887      8637.931    1771.651
      797.507      8719.339    1734.934       803.262      8719.021    1772.111
      936.849      8800.323    1736.307       944.336      8800.130    1769.416
     1075.455      8881.295    1736.354      1085.624      8881.230    1767.681
     1215.509      8962.245    1740.465      1227.216      8962.340    1767.848
     1355.313      9043.193    1742.453      1371.607      9043.529    1774.571
     1494.928      9124.128    1743.218      1515.023      9124.778    1778.482
     1635.534      9205.092    1744.907      1657.725      9206.077    1779.818
     1773.739      9285.926    1743.291      1797.307      9287.274    1775.959
     1909.772      9366.544    1739.253      1935.568      9368.386    1770.267
     2048.431      9447.250    1737.734      2075.857      9449.661    1767.242
     2189.120      9528.087    1738.684      2216.795      9531.080    1766.122
     2326.190      9608.426    1737.413      2352.382      9611.920    1761.175
     2464.760      9688.759    1737.628      2502.578      9695.009    1769.735
     2604.504      9769.116    1738.889      2647.801      9777.964    1775.100
     2750.068      9850.776    1745.462      2794.617      9861.937    1782.238
     2888.221      9930.620    1746.312      2930.063      9943.320    1779.198
     3025.623     10009.805    1747.166      3070.294     10026.032    1781.381
     3165.261     10089.414    1748.879      3214.014     10110.288    1786.928
     3311.999     10172.294    1755.006      3362.111     10197.161    1795.953
     3455.151     10253.921    1757.731      3497.087     10277.633    1793.708
     3591.702     10331.699    1754.713      3632.466     10357.539    1791.281
     3731.849     10411.496    1756.093      3769.790     10438.048    1792.000
     3868.687     10488.818    1756.920      3906.331     10517.489    1794.881
     4005.955     10566.216    1761.982      4045.318     10598.409    1806.267
     4145.480     10645.450    1774.529      4176.118     10672.004    1814.089
     4287.527     10727.156    1796.383      4322.588     10758.863    1846.150
     4433.981     10813.296    1828.489      4469.696     10846.460    1879.679
     4571.534     10891.383    1847.351      4604.686     10922.568    1892.659
     4704.647     10965.345    1857.087      4743.779     11002.249    1908.165
     4856.142     11056.710    1888.665      4893.215     11091.527    1934.883
     5004.127     11144.730    1914.776      5040.472     11178.626    1955.847
     5135.425     11217.223    1918.090      5174.695     11253.604    1957.947
     5271.943     11294.640    1921.276      5310.028     11329.745    1958.865
     5414.695     11377.816    1924.955      5444.701     11405.387    1957.102
     5555.063     11458.789    1924.366      5581.807     11483.331    1956.506
     5697.181     11541.355    1927.767      5723.336     11565.379    1961.349
     5837.990     11622.706    1927.561      5861.453     11644.321    1961.109
      317.859      8257.554    1735.992       318.163      8257.024    1768.516
      457.943      8338.627    1734.969       459.184      8338.104    1768.583
      597.779      8419.689    1733.857       600.451      8419.160    1769.840
      737.153      8500.742    1730.970       741.539      8500.286    1767.314
      876.392      8581.742    1730.425       883.274      8581.369    1769.096
     1015.444      8662.718    1731.871      1024.173      8662.498    1765.457
     1154.654      8743.673    1735.219      1164.977      8743.606    1763.452
     1292.818      8824.611    1735.921      1305.766      8824.702    1763.387
     1432.052      8905.533    1738.186      1452.614      8905.907    1775.097
     1572.030      8986.458    1740.469      1595.074      8987.115    1776.719
     1715.344      9067.508    1746.002      1740.394      9068.481    1780.463
     1856.328      9148.503    1747.651      1883.715      9149.870    1780.750
     1994.020      9229.311    1745.183      2023.754      9231.157    1776.778
     2130.031      9309.916    1740.673      2162.264      9312.379    1771.878
     2267.190      9390.474    1737.975      2297.658      9393.344    1765.664
     2402.979      9470.709    1735.202      2435.938      9474.556    1762.929
     2541.903      9551.089    1734.753      2580.715      9556.745    1764.752
     2683.428      9631.745    1736.184      2731.674      9640.528    1771.891
     2828.143      9713.105    1740.216      2881.511      9725.159    1778.586
     2962.503      9791.913    1737.403      3012.287      9805.720    1772.005
     3098.063      9870.278    1736.185      3150.069      9887.790    1771.885
     3238.611      9949.803    1737.579      3287.884      9969.677    1772.851
     3383.650     10031.250    1741.684      3436.961     10056.605    1782.685
     3534.827     10116.608    1751.325      3583.735     10143.563    1791.317
     3675.560     10196.989    1753.545      3724.363     10227.593    1795.602
     3814.771     10276.368    1756.047      3862.078     10309.493    1799.086
     3949.640     10352.328    1756.747      3994.709     10386.946    1799.782
     4086.712     10429.558    1763.370      4125.048     10461.390    1804.110
     4223.292     10506.192    1774.670      4256.190     10535.306    1814.590
     4376.906     10598.607    1813.680      4421.754     10640.067    1872.784
     4522.169     10684.069    1845.234      4560.269     10720.049    1897.959
     4647.237     10750.410    1848.337      4685.756     10787.014    1900.430
     4787.918     10831.592    1870.080      4824.686     10866.363    1916.987
     4947.151     10930.209    1910.387      4981.947     10962.813    1951.288
     5084.668     11008.356    1921.545      5121.803     11042.808    1960.143
     5209.555     11074.983    1917.402      5246.625     11109.051    1952.016
     5346.753     11153.101    1920.349      5381.735     11184.986    1952.417
     5491.639     11238.228    1925.034      5524.114     11267.636    1957.572
     5632.311     11319.506    1923.938      5660.934     11345.313    1956.136
     5775.635     11403.154    1927.928      5802.992     11427.774    1960.453
     5916.585     11484.641    1927.662      5941.201     11506.816    1960.254
      397.305      8119.951    1731.031       397.612      8119.415    1761.841
      537.421      8200.988    1732.576       538.682      8200.458    1763.965
      677.254      8282.055    1731.848       680.012      8281.512    1765.131
      816.805      8363.093    1730.920       821.279      8362.633    1763.239
      955.190      8444.149    1726.515       961.714      8443.800    1758.025
     1094.077      8525.114    1728.723      1102.891      8524.893    1758.109
     1233.073      8606.061    1732.593      1244.749      8605.978    1761.097
     1371.193      8686.995    1734.378      1386.918      8687.081    1764.918
     1508.719      8767.889    1734.563      1533.160      8768.268    1774.462
     1649.605      8848.824    1738.825      1679.558      8849.555    1780.113
     1791.048      8929.787    1741.810      1821.571      8930.799    1777.847
     1934.365      9010.844    1746.009      1965.169      9012.154    1777.878
     2074.677      9091.798    1746.335      2109.067      9093.618    1778.051
     2213.093      9172.625    1744.291      2248.694      9174.944    1774.502
     2351.202      9253.372    1742.082      2386.817      9256.232    1770.753
     2485.018      9333.605    1736.796      2521.860      9337.280    1764.656
     2622.227      9413.915    1733.412      2667.602      9419.603    1764.480
     2764.209      9494.703    1733.661      2819.601      9503.467    1769.042
     2900.102      9574.301    1730.741      2960.014      9586.196    1767.353
     3030.271      9651.903    1725.138      3091.222      9667.021    1761.726
     3170.641      9731.224    1726.158      3233.748      9750.591    1764.326
     3314.396      9811.468    1728.347      3371.367      9832.824    1765.238
     3456.108      9890.938    1729.244      3516.646      9918.273    1772.437
     3608.339      9975.971    1739.544      3660.065     10003.629    1779.212
     3750.372     10056.568    1743.828      3803.869     10089.781    1787.322
     3894.819     10139.163    1752.027      3947.936     10176.610    1797.565
     4030.871     10215.935    1755.568      4082.677     10256.535    1801.797
     4172.233     10296.768    1768.216      4216.827     10334.986    1812.516
     4309.470     10374.177    1783.007      4349.018     10410.601    1828.359
     4448.030     10452.966    1805.668      4513.471     10516.099    1885.755
     4598.574     10543.843    1843.656      4641.984     10586.468    1901.659
     4729.128     10615.190    1856.098      4771.283     10656.388    1912.148
     4880.778     10707.013    1893.641      4920.524     10745.082    1942.761
     5031.163     10797.192    1921.817      5066.106     10830.004    1960.230
     5154.045     10861.677    1916.781      5196.387     10900.831    1957.424
     5282.541     10931.767    1916.026      5326.075     10971.507    1953.719
     5426.529     11016.114    1923.883      5463.970     11049.910    1956.214
     5570.205     11100.133    1926.780      5600.829     11127.503    1956.031
     5711.124     11181.662    1925.407      5741.437     11208.540    1957.967
     5855.836     11266.517    1930.339      5883.536     11290.952    1961.314
     5996.806     11348.036    1930.070      6021.804     11370.047    1961.165
      476.691      7982.451    1721.995       477.000      7981.911    1750.347
      616.689      8063.436    1725.699       618.082      8062.857    1756.940
      756.571      8144.452    1727.930       759.373      8143.908    1757.994
      896.347      8225.455    1729.519       901.078      8224.976    1759.198
     1035.044      8306.501    1727.587      1042.183      8306.124    1757.118
     1174.177      8387.475    1730.564      1184.637      8387.212    1760.927
     1311.802      8468.450    1731.295      1325.149      8468.344    1760.772
     1449.777      8549.386    1733.451      1470.052      8549.461    1770.039
     1588.072      8630.301    1735.346      1614.842      8630.638    1775.562
     1727.927      8711.225    1738.086      1761.710      8711.905    1779.108
     1864.208      8792.043    1735.623      1901.007      8793.053    1773.184
     2008.431      8873.070    1740.767      2049.125      8874.503    1777.170
     2152.198      8954.129    1744.209      2190.642      8955.819    1775.210
     2296.634      9035.282    1746.627      2333.968      9037.308    1774.340
     2438.074      9116.337    1745.659      2473.254      9118.688    1770.179
     2575.538      9197.115    1741.193      2619.863      9200.794    1770.171
     2705.646      9277.029    1731.466      2755.304      9282.248    1761.210
     2841.073      9357.079    1726.744      2898.107      9364.745    1757.799
     2973.901      9436.253    1722.287      3039.217      9447.361    1755.601
     3101.716      9513.443    1715.901      3181.268      9530.680    1756.846
     3248.920      9594.210    1719.617      3320.411      9613.836    1757.675
     3391.602      9673.894    1720.060      3461.634      9697.919    1760.970
     3532.324      9752.646    1719.681      3592.164      9777.983    1759.075
     3674.063      9831.557    1722.527      3731.739      9861.237    1763.625
     3821.322      9913.825    1730.929      3879.797      9949.689    1775.269
     3968.300      9997.221    1741.277      4021.298     10035.022    1783.793
     4103.619     10072.590    1745.330      4161.634     10119.549    1793.518
     4247.376     10154.831    1760.218      4302.205     10204.283    1811.300
     4395.384     10242.259    1786.704      4432.001     10278.199    1827.549
     4521.675     10308.793    1796.188      4599.981     10389.614    1891.969
     4684.216     10413.103    1850.630      4725.399     10456.240    1903.975
     4825.265     10494.714    1878.083      4866.816     10537.389    1932.116
     4975.500     10584.897    1913.889      5013.425     10622.215    1959.298
     5106.909     10656.512    1920.857      5146.170     10693.708    1961.754
     5229.271     10720.449    1916.435      5274.488     10762.217    1957.030
     5360.188     10792.854    1917.604      5405.948     10834.375    1955.000
     5503.015     10876.177    1923.718      5544.605     10913.375    1958.353
     5645.349     10959.031    1925.011      5677.857     10987.724    1955.303
     5789.748     11043.658    1926.777      5820.353     11070.361    1958.765
     5936.109     11129.908    1932.875      5963.803     11153.859    1962.490
     6077.258     11211.590    1932.560      6102.206     11233.062    1962.335
      556.092      7844.926    1715.860       556.423      7844.347    1743.374
      695.893      7925.906    1718.816       697.268      7925.346    1746.390
      835.679      8006.886    1722.296       838.873      8006.281    1752.769
      975.362      8087.868    1724.892       981.488      8087.262    1758.688
     1115.076      8168.843    1728.464      1124.287      8168.365    1761.620
     1254.910      8249.821    1733.301      1267.055      8249.513    1764.527
     1392.004      8330.832    1733.065      1407.838      8330.687    1765.221
     1529.350      8411.788    1734.151      1551.365      8411.821    1771.265
     1667.829      8492.723    1736.110      1697.709      8492.998    1777.194
     1804.327      8573.616    1734.645      1843.340      8574.214    1777.100
     1941.016      8654.464    1733.269      1985.060      8655.400    1773.239
     2081.311      8735.354    1734.958      2127.278      8736.623    1771.720
     2223.568      8816.291    1737.293      2268.881      8817.871    1770.315
     2372.237      8897.516    1741.954      2408.202      8899.077    1765.858
     2520.577      8978.878    1743.289      2557.120      8980.840    1765.510
     2665.100      9060.203    1740.463      2711.242      9063.282    1766.726
     2791.689      9140.213    1727.483      2848.198      9145.017    1757.626
     2924.597      9220.312    1720.793      2994.717      9228.107    1753.899
     3049.266      9298.722    1712.981      3140.250      9311.752    1752.865
     3186.112      9377.876    1711.304      3272.380      9393.904    1750.930
     3330.296      9458.056    1713.661      3418.583      9479.313    1755.826
     3469.646      9536.804    1712.564      3551.373      9561.984    1755.691
     3607.213      9614.160    1710.489      3682.865      9643.680    1755.953
     3747.029      9691.479    1712.448      3814.340      9724.317    1756.467
     3890.920      9770.528    1717.845      3952.887      9807.734    1761.444
     4035.588      9850.671    1725.414      4097.114      9895.063    1771.919
     4172.375      9925.229    1730.790      4238.929      9981.431    1783.165
     4317.672     10007.355    1745.462      4378.135     10065.830    1799.841
     4456.828     10084.847    1759.234      4505.922     10137.482    1814.372
     4588.498     10154.960    1772.272      4686.629     10267.273    1899.416
     4712.566     10217.902    1779.614      4823.410     10345.813    1922.007
     4925.221     10381.125    1899.528      4967.824     10428.184    1954.885
     5063.448     10457.325    1920.681      5101.222     10496.134    1965.726
     5184.936     10518.080    1918.342      5228.551     10560.158    1962.636
     5307.053     10581.579    1915.286      5356.173     10627.048    1957.451
     5441.921     10657.657    1920.067      5490.340     10701.310    1958.274
     5582.464     10738.937    1924.550      5624.504     10776.140    1959.114
     5724.852     10821.840    1926.507      5758.599     10851.216    1957.789
     5871.003     10907.941    1930.701      5901.390     10934.001    1962.089
     6017.714     10994.395    1936.666      6045.664     11018.078    1965.678
     6159.189     11076.346    1936.347      6184.144     11097.320    1965.552
      635.572      7707.262    1716.271       635.903      7706.684    1742.234
      775.313      7788.282    1717.024       776.798      7787.697    1744.333
      915.170      7869.243    1720.911       918.786      7868.581    1752.385
     1054.657      7950.252    1722.289      1060.916      7949.651    1753.618
     1193.604      8031.265    1723.908      1203.563      8030.755    1756.177
     1332.374      8112.252    1727.499      1346.397      8111.890    1760.209
     1470.319      8193.234    1730.532      1489.353      8193.031    1766.353
     1609.030      8274.195    1734.362      1633.322      8274.165    1772.433
     1749.234      8355.163    1737.949      1781.546      8355.325    1778.459
     1882.959      8436.075    1732.902      1920.932      8436.444    1770.768
     2019.108      8516.960    1731.150      2067.437      8517.642    1771.613
     2155.996      8597.799    1730.283      2200.064      8598.643    1763.159
     2296.814      8678.670    1731.500      2347.417      8679.942    1766.146
     2444.379      8759.734    1734.329      2493.917      8761.337    1764.799
     2597.935      8841.144    1735.984      2649.717      8843.266    1764.437
     2741.891      8922.334    1729.910      2801.105      8925.375    1760.299
     2880.387      9003.314    1721.467      2945.239      9007.522    1753.038
     3009.874      9083.546    1711.953      3085.029      9089.965    1744.565
     3134.029      9162.452    1703.512      3225.043      9173.104    1743.278
     3273.891      9242.474    1704.832      3366.098      9256.945    1745.301
     3412.883      9322.017    1706.554      3500.638      9340.216    1745.661
     3546.392      9399.525    1704.730      3626.435      9421.236    1743.324
     3685.428      9477.354    1705.212      3755.429      9501.968    1743.200
     3826.580      9555.152    1708.411      3908.328      9591.960    1756.902
     3970.290      9633.576    1712.992      4040.498      9673.994    1758.590
     4111.092      9710.012    1716.470      4169.404      9752.299    1758.358
     4249.658      9784.371    1722.177      4315.119      9842.286    1772.344
     4395.919      9866.374    1735.463      4451.825      9924.999    1786.011
     4534.366      9941.611    1744.907      4577.002      9993.047    1795.371
     4668.153     10009.780    1753.580      4702.516     10057.788    1805.438
     4791.483     10070.553    1761.632      4905.660     10228.522    1922.683
     5003.950     10247.552    1890.188      5049.051     10302.956    1951.773
     5139.980     10318.701    1909.469      5181.706     10363.801    1960.393
     5265.676     10382.329    1913.619      5308.317     10424.353    1956.732
     5392.244     10449.575    1916.283      5436.380     10490.533    1953.313
     5527.664     10526.041    1922.498      5569.425     10563.363    1954.961
     5661.715     10601.569    1923.054      5703.798     10638.287    1957.763
     5809.916     10689.445    1931.680      5844.896     10719.373    1964.261
     5955.639     10775.030    1936.955      5986.054     10800.599    1968.382
     6101.257     10860.415    1941.422      6129.864     10884.110    1970.824