NOECHO

-- =============================================================================
-- 
-- Exported from Reek_base_sim
-- 
-- Exported by user asny from RMS11 at 2020-02-19 16:55:42
-- 
-- =============================================================================

MAPUNITS
'METRES  ' /

MAPAXES
456514.865 5939175.167
456514.865 5927115.548
467218.466 5927115.548 /

GRIDUNIT
'METRES  ' '        ' /

SPECGRID
  40  64  14   1  F  /

GDORIENT
INC INC INC DOWN RIGHT /

COORD
        0.000      8808.161    1734.396         0.203      8807.738    1768.350
      139.978      8889.202    1735.666       140.914      8888.798    1769.114
      279.832      8970.233    1738.599       281.754      8969.830    1772.730
      419.581      9051.237    1742.182       423.004      9050.847    1779.908
      559.300      9132.221    1745.662       564.481      9131.904    1784.483
      698.836      9213.198    1747.042       705.850      9213.001    1782.827
      838.168      9294.163    1747.026       847.738      9294.110    1781.158
      977.415      9375.106    1746.491       989.987      9375.259    1779.823
     1116.134      9456.011    1744.538      1131.207      9456.425    1776.570
     1254.252      9536.848    1741.342      1272.812      9537.634    1775.297
     1392.521      9617.629    1738.539      1415.391      9618.942    1775.533
     1530.722      9698.336    1737.495      1555.038      9700.122    1771.078
     1669.478      9779.012    1738.746      1696.460      9781.469    1769.395
     1807.291      9859.498    1738.900      1835.761      9862.669    1766.232
     1944.398      9939.732    1738.354      1974.717      9943.844    1764.257
     2083.299     10020.009    1739.212      2115.319     10025.300    1765.126
     2220.860     10099.815    1738.811      2254.504     10106.591    1766.467
     2359.466     10179.519    1739.863      2394.602     10188.105    1770.707
     2500.895     10259.734    1745.379      2538.284     10270.735    1780.589
     2642.345     10339.918    1753.108      2681.635     10353.677    1791.672
     2782.344     10419.479    1759.353      2826.281     10437.555    1803.245
     2922.218     10498.810    1763.420      2968.925     10521.022    1811.038
     3062.024     10577.967    1765.002      3109.396     10603.549    1813.386
     3201.967     10657.113    1764.313      3246.568     10684.009    1808.409
     3342.238     10736.455    1762.713      3382.013     10762.838    1800.947
     3481.295     10814.967    1760.546      3515.903     10839.906    1793.839
     3619.494     10892.757    1760.089      3656.283     10921.250    1796.609
     3758.899     10971.453    1763.919      3802.280     11007.196    1810.051
     3899.926     11051.657    1772.606      3942.109     11088.240    1821.781
     4041.030     11132.218    1785.862      4081.847     11169.060    1836.743
     4185.348     11216.061    1810.732      4229.087     11256.698    1862.657
     4331.615     11302.143    1836.808      4377.864     11345.896    1887.961
     4468.125     11379.211    1847.856      4516.196     11425.104    1900.668
     4611.034     11462.499    1866.269      4657.471     11506.962    1918.427
     4758.128     11549.863    1892.122      4800.535     11590.482    1940.114
     4901.870     11634.038    1909.985      4943.162     11673.600    1953.468
     5041.692     11714.456    1917.739      5080.555     11751.757    1958.625
     5180.784     11794.167    1921.075      5213.731     11825.883    1959.695
     5321.833     11875.753    1925.956      5351.038     11903.984    1964.639
     5462.250     11956.720    1931.514      5487.698     11981.458    1968.274
     5602.279     12037.292    1931.222      5625.081     12059.619    1968.107
       79.450      8670.520    1734.434        79.688      8670.101    1768.374
      219.448      8751.564    1735.707       220.421      8751.162    1769.144
      359.352      8832.589    1738.635       361.312      8832.192    1772.765
      499.170      8913.593    1742.225       502.633      8913.211    1779.915
      639.003      8994.574    1745.695       644.193      8994.276    1784.483
      778.712      9075.556    1747.073       785.602      9075.379    1782.844
      918.312      9156.528    1747.077       927.625      9156.496    1781.181
     1057.809      9237.489    1746.538      1069.875      9237.650    1779.827
     1196.611      9318.413    1744.576      1210.956      9318.813    1776.576
     1334.670      9399.266    1741.385      1352.238      9400.003    1775.302
     1472.939      9480.072    1738.613      1494.633      9481.288    1775.535
     1611.447      9560.831    1737.588      1634.514      9562.470    1771.079
     1750.880      9641.602    1738.807      1776.615      9643.860    1769.402
     1889.643      9722.254    1738.958      1916.427      9725.115    1766.209
     2027.807      9802.728    1738.478      2055.833      9806.371    1764.260
     2167.360      9883.255    1739.287      2197.082      9887.965    1765.152
     2305.792      9963.436    1738.940      2337.401      9969.557    1766.528
     2445.162     10043.589    1740.169      2478.402     10051.435    1770.921
     2586.884     10124.206    1745.827      2622.089     10134.259    1780.912
     2727.702     10204.542    1753.490      2764.947     10217.261    1791.949
     2867.598     10284.430    1759.672      2910.240     10301.619    1803.563
     3007.757     10364.261    1763.650      3053.184     10385.527    1811.262
     3148.028     10444.045    1765.106      3193.186     10468.149    1813.379
     3288.545     10523.928    1764.358      3329.778     10548.580    1808.355
     3429.687     10604.257    1762.628      3466.140     10628.280    1800.735
     3569.870     10684.033    1760.506      3601.534     10706.734    1793.899
     3707.905     10762.194    1760.238      3742.164     10788.618    1797.279
     3846.028     10840.285    1764.345      3886.122     10873.211    1810.663
     3985.311     10919.315    1773.110      4023.291     10952.169    1822.039
     4124.871     10998.701    1786.524      4160.713     11030.986    1836.797
     4268.188     11081.736    1811.498      4304.933     11115.803    1861.821
     4412.136     11165.681    1836.965      4451.235     11202.579    1886.954
     4548.063     11242.221    1847.900      4589.747     11281.889    1900.086
     4690.398     11324.959    1866.245      4730.998     11363.671    1917.554
     4836.325     11411.186    1891.881      4873.346     11446.455    1938.870
     4979.248     11494.564    1909.781      5017.459     11530.932    1953.019
     5119.502     11575.395    1917.681      5156.887     11611.008    1958.639
     5259.473     11655.951    1921.064      5291.703     11686.720    1959.839
     5401.492     11738.462    1925.983      5430.075     11765.844    1964.691
     5542.670     11820.163    1931.526      5567.719     11844.279    1968.351
     5682.680     11900.730    1931.230      5705.245     11922.604    1968.183
      158.885      8532.934    1732.306       159.172      8532.434    1767.106
      298.809      8613.980    1733.276       299.917      8613.516    1766.948
      438.625      8694.996    1735.997       440.781      8694.567    1769.137
      578.373      8775.985    1739.297       582.345      8775.571    1777.578
      718.217      8856.952    1742.879       723.841      8856.657    1780.299
      857.920      8937.925    1744.296       865.150      8937.771    1778.205
      997.291      9018.895    1743.650      1006.896      9018.890    1775.931
     1137.041      9099.854    1744.191      1150.185      9100.051    1778.282
     1275.739      9180.777    1742.773      1290.551      9181.194    1774.237
     1414.023      9261.648    1740.959      1432.742      9262.407    1775.148
     1550.939      9342.398    1736.682      1574.967      9343.670    1775.124
     1689.042      9423.136    1735.321      1713.252      9424.734    1768.473
     1829.484      9503.990    1737.334      1855.297      9506.068    1766.553
     1967.728      9584.617    1736.458      1991.873      9586.966    1760.473
     2106.483      9665.189    1736.209      2132.597      9668.270    1760.292
     2246.844      9745.859    1737.429      2274.182      9749.799    1761.310
     2383.431      9825.785    1734.778      2415.234      9831.419    1762.214
     2522.766      9905.912    1735.262      2556.308      9913.227    1765.349
     2665.445      9986.704    1741.308      2702.981      9996.715    1776.964
     2805.873     10066.880    1747.960      2842.800     10078.794    1784.106
     2946.573     10147.013    1754.016      2991.250     10164.226    1797.609
     3087.149     10226.984    1757.525      3133.187     10247.812    1803.709
     3229.008     10307.544    1760.098      3276.335     10332.207    1809.449
     3368.872     10387.086    1758.863      3408.343     10410.315    1800.972
     3509.655     10467.183    1757.279      3544.543     10489.951    1793.922
     3649.965     10547.054    1755.854      3677.537     10566.704    1784.915
     3784.912     10622.880    1752.936      3816.836     10647.416    1787.263
     3923.034     10700.859    1758.115      3964.630     10734.950    1806.048
     4064.628     10781.801    1771.462      4100.353     10812.671    1818.003
     4199.491     10856.990    1780.343      4234.719     10888.696    1830.906
     4345.763     10942.672    1810.442      4379.869     10974.244    1859.264
     4495.462     11032.019    1844.973      4530.070     11064.587    1891.657
     4625.272     11102.820    1848.530      4663.723     11139.241    1898.845
     4766.135     11184.170    1865.433      4804.225     11220.234    1914.481
     4918.214     11276.178    1898.095      4957.754     11313.478    1946.563
     5060.087     11358.532    1913.898      5096.196     11392.478    1953.599
     5196.464     11435.726    1917.629      5232.536     11469.580    1956.048
     5334.102     11514.104    1917.815      5366.534     11544.544    1955.181
     5478.135     11598.476    1923.787      5508.357     11626.892    1962.659
     5620.517     11681.296    1929.522      5646.379     11705.696    1965.458
     5760.804     11762.127    1929.265      5784.116     11784.244    1965.316
      238.358      8395.282    1733.960       238.679      8394.722    1767.928
      378.297      8476.345    1733.863       379.482      8475.836    1766.326
      518.000      8557.385    1734.515       520.237      8556.939    1765.079
      657.682      8638.369    1737.184       661.615      8637.968    1770.497
      797.167      8719.346    1738.406       803.341      8719.039    1774.326
      936.275      8800.314    1737.864       944.501      8800.161    1771.566
     1075.348      8881.262    1737.781      1086.192      8881.276    1770.422
     1215.587      8962.213    1740.653      1228.058      8962.409    1770.539
     1354.841      9043.146    1741.524      1370.974      9043.592    1773.582
     1494.559      9124.081    1743.095      1516.283      9124.917    1779.698
     1634.042      9204.993    1743.088      1658.270      9206.184    1778.262
     1772.793      9285.841    1741.639      1799.030      9287.425    1774.089
     1909.276      9366.482    1738.087      1933.897      9368.273    1763.851
     2046.376      9447.058    1735.671      2073.219      9449.399    1761.121
     2185.805      9527.736    1735.747      2210.933      9530.386    1758.455
     2325.644      9608.373    1736.193      2348.110      9611.271    1755.395
     2464.768      9688.789    1734.867      2499.796      9694.380    1763.757
     2605.594      9769.349    1735.949      2646.790      9777.528    1770.167
     2749.065      9850.487    1742.206      2787.890      9860.032    1774.996
     2884.788      9929.501    1743.365      2920.897      9940.384    1774.463
     3023.173     10008.757    1745.803      3064.874     10023.972    1782.507
     3162.447     10087.936    1746.841      3207.015     10107.304    1788.253
     3310.496     10171.249    1754.722      3354.924     10193.801    1798.571
     3455.441     10253.810    1759.255      3490.489     10274.152    1795.083
     3591.896     10331.504    1754.889      3629.248     10355.773    1792.994
     3731.142     10410.741    1754.399      3762.346     10433.021    1786.023
     3866.709     10487.107    1753.491      3900.398     10513.135    1788.125
     4005.627     10565.854    1760.816      4048.324     10601.100    1808.418
     4145.242     10645.242    1774.077      4178.097     10673.882    1815.852
     4287.942     10727.605    1796.679      4319.898     10756.599    1841.615
     4435.462     10814.793    1829.793      4464.681     10841.980    1871.437
     4573.099     10892.983    1848.134      4600.709     10919.014    1885.847
     4707.865     10968.496    1859.005      4739.950     10998.846    1901.329
     4856.073     11056.790    1885.435      4886.563     11085.527    1924.058
     5002.355     11143.242    1908.785      5037.879     11176.511    1949.548
     5134.068     11216.090    1911.719      5171.629     11251.046    1950.838
     5270.231     11293.155    1914.868      5306.310     11326.572    1951.733
     5413.122     11376.453    1920.120      5440.872     11402.083    1950.653
     5555.670     11459.412    1923.328      5580.777     11482.583    1954.046
     5698.338     11542.468    1927.997      5722.762     11565.041    1960.177
     5838.978     11623.631    1927.736      5860.826     11643.903    1959.865
      317.859      8257.582    1736.458       318.205      8256.979    1769.029
      457.930      8338.643    1736.851       459.247      8338.070    1769.490
      597.711      8419.707    1736.433       600.510      8419.147    1770.556
      737.093      8500.744    1735.415       741.650      8500.288    1769.146
      876.099      8581.739    1734.266       883.852      8581.371    1772.978
     1015.267      8662.691    1735.097      1024.607      8662.533    1768.008
     1154.338      8743.632    1735.793      1165.201      8743.658    1764.896
     1291.429      8824.534    1732.273      1304.146      8824.734    1760.388
     1431.047      8905.446    1735.779      1449.959      8905.948    1770.876
     1571.726      8986.395    1740.338      1594.805      8987.224    1776.040
     1713.941      9067.421    1744.736      1740.090      9068.598    1778.796
     1854.851      9148.409    1745.483      1882.386      9149.909    1775.674
     1991.170      9229.108    1741.431      2017.734      9230.831    1766.555
     2126.003      9309.591    1736.778      2158.105      9312.067    1764.932
     2263.548      9390.139    1734.944      2293.738      9392.939    1760.745
     2402.027      9470.632    1733.709      2436.054      9474.491    1761.232
     2543.359      9551.342    1733.309      2583.668      9557.024    1763.825
     2687.197      9632.442    1735.671      2731.889      9640.356    1768.438
     2828.427      9713.143    1738.737      2874.752      9723.440    1772.092
     2959.668      9791.052    1735.530      3007.667      9804.335    1770.505
     3096.360      9869.498    1735.079      3147.696      9886.984    1774.386
     3237.469      9948.976    1736.036      3287.118      9969.477    1777.582
     3384.762     10031.352    1741.789      3432.194     10054.648    1785.082
     3534.947     10116.355    1751.559      3577.069     10140.426    1791.950
     3676.103     10197.037    1753.999      3717.637     10223.997    1794.168
     3814.423     10275.860    1755.007      3853.516     10304.029    1792.313
     3951.032     10353.188    1756.977      3991.322     10384.792    1795.745
     4089.833     10432.062    1765.879      4129.168     10465.169    1807.426
     4224.666     10507.400    1776.151      4258.670     10537.733    1817.218
     4378.363     10600.090    1815.571      4421.177     10639.845    1871.755
     4523.453     10685.454    1846.661      4556.872     10717.086    1892.664
     4647.973     10751.258    1848.636      4683.319     10784.930    1896.413
     4789.570     10833.307    1870.726      4820.416     10862.581    1910.572
     4947.223     10930.499    1908.296      4977.927     10959.391    1945.161
     5086.012     11009.821    1919.597      5119.370     11040.912    1955.303
     5208.481     11074.129    1911.396      5244.447     11107.341    1946.758
     5345.264     11151.850    1913.976      5379.141     11182.879    1947.256
     5492.972     11239.552    1923.376      5521.454     11265.478    1953.690
     5631.866     11319.189    1921.643      5658.071     11342.945    1952.618
     5775.747     11403.324    1926.759      5800.450     11425.688    1957.779
     5916.704     11484.785    1926.415      5938.889     11504.902    1957.518
      397.288      8120.008    1731.134       397.673      8119.335    1763.950
      537.449      8200.987    1735.694       538.886      8200.362    1768.007
      677.355      8282.039    1736.196       680.346      8281.447    1768.995
      816.926      8363.075    1735.826       821.282      8362.648    1764.110
      955.110      8444.128    1730.938       961.828      8443.822    1759.651
     1093.195      8525.086    1729.737      1102.903      8524.935    1759.252
     1232.564      8606.006    1732.783      1245.952      8606.045    1765.087
     1370.856      8686.917    1733.078      1388.339      8687.189    1769.365
     1508.144      8767.784    1732.987      1532.159      8768.387    1775.235
     1648.151      8848.702    1737.517      1677.006      8849.661    1778.879
     1789.790      8929.686    1741.823      1817.319      8930.809    1774.323
     1933.528      9010.786    1745.668      1959.358      9012.043    1770.865
     2071.234      9091.593    1742.918      2100.396      9093.262    1767.632
     2207.810      9172.264    1739.713      2241.127      9174.510    1766.110
     2346.398      9252.991    1738.232      2384.319      9256.039    1767.712
     2485.149      9333.647    1736.035      2519.754      9337.025    1761.479
     2625.776      9414.404    1733.692      2669.428      9419.708    1763.112
     2768.271      9495.375    1733.738      2818.749      9503.143    1765.511
     2903.651      9575.018    1731.709      2957.445      9585.539    1764.107
     3033.244      9652.576    1727.107      3088.323      9666.250    1760.622
     3172.934      9731.698    1727.298      3229.750      9749.432    1764.548
     3314.653      9811.142    1727.033      3367.402      9831.527    1766.174
     3459.393      9891.865    1729.341      3513.656      9917.373    1774.501
     3609.002      9975.844    1738.524      3655.061     10001.602    1779.286
     3751.661     10056.932    1744.047      3797.925     10086.920    1785.447
     3894.253     10138.454    1751.017      3942.341     10173.622    1793.350
     4031.640     10216.289    1755.632      4077.914     10253.561    1796.795
     4172.777     10297.159    1768.307      4217.792     10336.433    1813.108
     4310.691     10375.337    1784.598      4348.077     10410.117    1827.975
     4449.107     10454.115    1807.490      4509.636     10512.809    1881.867
     4597.232     10542.702    1842.047      4637.140     10581.982    1895.191
     4727.118     10613.395    1853.307      4765.715     10651.217    1904.599
     4881.741     10708.167    1894.483      4917.604     10742.661    1939.352
     5030.215     10796.585    1919.551      5061.387     10826.010    1954.566
     5154.693     10862.479    1914.403      5191.531     10896.733    1951.222
     5283.949     10933.191    1912.312      5326.389     10972.149    1951.906
     5426.037     11015.811    1918.511      5466.052     11052.121    1956.894
     5569.990     11100.080    1923.569      5600.787     11127.748    1955.990
     5709.605     11180.424    1921.971      5737.534     11205.319    1954.606
     5854.677     11265.594    1928.166      5880.104     11288.150    1958.902
     5995.808     11347.224    1927.840      6018.752     11367.553    1958.691
      476.668      7982.519    1722.049       477.089      7981.783    1754.915
      616.671      8063.457    1727.815       618.233      8062.786    1759.692
      756.684      8144.433    1731.964       759.789      8143.830    1763.007
      896.375      8225.446    1732.987       901.366      8224.972    1761.808
     1034.802      8306.487    1730.368      1042.774      8306.140    1759.934
     1173.912      8387.439    1732.945      1185.940      8387.268    1765.108
     1311.203      8468.381    1731.572      1326.686      8468.435    1765.890
     1449.342      8549.290    1732.574      1469.755      8549.600    1772.889
     1586.938      8630.172    1733.811      1610.378      8630.725    1773.264
     1725.108      8711.046    1735.899      1754.598      8711.944    1775.297
     1862.446      8791.866    1735.857      1895.075      8793.063    1771.086
     2006.883      8872.949    1741.013      2042.196      8874.467    1772.116
     2148.454      8953.930    1741.746      2185.340      8955.775    1770.015
     2292.496      9035.062    1743.555      2329.693      9037.228    1770.027
     2432.886      9116.009    1741.953      2473.387      9118.786    1769.712
     2573.687      9196.992    1739.138      2618.837      9200.711    1768.350
     2709.745      9277.509    1732.234      2755.272      9282.170    1759.385
     2847.484      9358.001    1728.335      2892.256      9363.857    1752.556
     2979.499      9437.258    1724.055      3035.191      9446.588    1752.062
     3107.698      9514.710    1718.764      3180.475      9530.502    1756.174
     3250.946      9594.561    1719.927      3320.694      9614.083    1759.375
     3393.645      9674.184    1719.072      3454.284      9695.719    1758.926
     3534.444      9752.904    1717.663      3583.298      9774.543    1754.448
     3675.662      9831.558    1720.247      3728.428      9860.100    1762.663
     3820.433      9912.491    1728.663      3877.369      9949.152    1774.871
     3968.980      9997.212    1741.673      4019.026     10034.453    1781.804
     4104.421     10072.747    1746.030      4158.004     10117.575    1789.991
     4249.337     10156.415    1762.137      4299.395     10202.607    1809.462
     4396.295     10243.240    1788.695      4429.189     10275.970    1826.499
     4522.027     10309.222    1797.326      4594.518     10384.497    1887.036
     4682.239     10411.212    1848.298      4721.000     10451.946    1898.663
     4822.104     10491.671    1874.086      4859.755     10530.486    1923.287
     4974.136     10583.874    1912.504      5009.714     10619.067    1955.565
     5106.125     10656.080    1919.375      5143.129     10691.360    1958.765
     5229.934     10721.272    1914.669      5272.069     10760.456    1954.354
     5363.064     10795.624    1915.748      5405.466     10834.348    1953.654
     5506.696     10879.641    1922.547      5543.429     10912.688    1957.445
     5646.056     10959.807    1922.596      5676.995     10987.265    1955.442
     5788.390     11042.612    1923.440      5816.864     11067.584    1957.019
     5934.272     11128.451    1930.475      5960.724     11151.450    1961.769
     6075.619     11210.280    1930.121      6099.538     11230.981    1961.557
      556.081      7844.973    1716.350       556.503      7844.235    1746.640
      695.862      7925.935    1720.094       697.517      7925.239    1750.802
      835.805      8006.863    1725.786       839.072      8006.248    1755.738
      975.240      8087.867    1726.798       981.760      8087.273    1760.711
     1114.751      8168.836    1730.069      1124.762      8168.423    1762.976
     1253.512      8249.813    1732.444      1265.908      8249.651    1762.254
     1390.149      8330.760    1731.173      1407.126      8330.825    1766.192
     1527.580      8411.666    1731.954      1549.857      8411.989    1773.568
     1665.312      8492.561    1733.719      1693.853      8493.184    1778.745
     1802.089      8573.416    1733.873      1838.596      8574.415    1779.247
     1938.798      8654.237    1733.564      1983.589      8655.682    1778.046
     2079.077      8735.145    1735.390      2125.277      8736.870    1773.017
     2220.910      8816.104    1736.643      2267.420      8818.098    1769.809
     2370.516      8897.443    1741.223      2406.543      8899.222    1764.696
     2519.341      8978.868    1742.490      2563.167      8981.381    1769.040
     2664.225      9060.206    1739.360      2707.272      9063.133    1763.964
     2794.116      9140.483    1727.629      2844.927      9144.745    1754.936
     2929.725      9220.965    1721.948      2987.757      9227.280    1749.500
     3056.107      9299.794    1714.901      3129.243      9310.119    1746.682
     3190.360      9378.695    1712.526      3271.167      9393.703    1749.375
     3331.336      9458.181    1712.983      3417.260      9479.253    1756.201
     3471.789      9537.120    1711.099      3544.280      9560.246    1753.245
     3609.535      9614.435    1707.895      3677.220      9642.071    1753.070
     3748.157      9691.125    1709.250      3809.374      9722.507    1752.976
     3889.625      9768.709    1715.488      3948.891      9806.070    1758.605
     4034.873      9849.229    1725.828      4092.118      9892.395    1767.819
     4174.333      9926.015    1733.255      4235.610      9979.720    1780.542
     4320.120     10009.191    1748.126      4375.931     10064.787    1799.575
     4456.910     10084.540    1759.830      4500.521     10132.290    1810.792
     4589.097     10155.375    1773.039      4681.097     10261.956    1893.915
     4714.641     10219.979    1781.077      4818.542     10340.804    1916.203
     4922.256     10378.119    1895.741      4962.007     10422.326    1947.937
     5060.832     10455.014    1917.752      5098.287     10493.773    1962.796
     5183.134     10516.657    1916.152      5224.623     10557.000    1959.256
     5306.385     10581.171    1913.066      5354.879     10626.409    1956.948
     5444.398     10660.085    1919.198      5490.524     10701.973    1959.318
     5587.618     10743.705    1926.217      5622.983     10775.200    1959.753
     5726.957     10823.859    1926.368      5758.975     10851.885    1960.874
     5871.192     10908.288    1929.570      5900.644     10933.670    1964.846
     6016.400     10993.455    1935.503      6044.177     11017.102    1968.054
     6157.955     11075.453    1935.181      6183.012     11096.613    1967.944
      635.555      7707.319    1715.503       635.935      7706.656    1741.085
      775.161      7788.358    1715.235       776.756      7787.711    1742.263
      914.966      7869.279    1720.332       918.603      7868.623    1750.388
     1054.551      7950.246    1723.288      1060.631      7949.719    1751.864
     1193.087      8031.251    1724.464      1204.166      8030.823    1757.450
     1330.384      8112.220    1725.489      1345.488      8112.042    1758.689
     1468.514      8193.142    1729.136      1488.689      8193.220    1767.706
     1607.364      8274.073    1733.365      1631.731      8274.400    1775.632
     1746.516      8355.019    1736.625      1781.528      8355.703    1787.380
     1881.595      8435.875    1733.707      1921.358      8436.818    1779.904
     2017.136      8516.707    1731.984      2067.706      8518.087    1779.311
     2153.725      8597.524    1730.991      2199.446      8598.945    1766.399
     2298.125      8678.565    1734.003      2345.281      8680.232    1766.203
     2444.866      8759.714    1735.338      2490.378      8761.556    1763.222
     2600.662      8841.346    1737.468      2650.643      8843.683    1765.052
     2744.652      8922.577    1730.822      2799.375      8925.569    1759.171
     2881.730      9003.491    1721.422      2944.138      9007.591    1752.086
     3007.931      9083.494    1710.594      3075.119      9089.187    1739.925
     3136.695      9162.896    1703.877      3203.983      9170.670    1732.592
     3272.746      9242.381    1703.248      3350.931      9254.637    1736.973
     3409.198      9321.210    1703.571      3496.181      9339.550    1744.134
     3546.156      9399.191    1702.130      3627.509      9421.988    1743.956
     3688.158      9477.836    1702.995      3756.258      9502.806    1742.311
     3828.453      9555.357    1705.944      3900.283      9589.104    1750.575
     3968.801      9631.913    1711.135      4037.703      9673.276    1755.933
     4110.266      9708.476    1717.902      4172.907      9755.825    1760.708
     4254.864      9788.113    1727.748      4317.365      9845.588    1774.630
     4399.927      9869.882    1740.023      4450.849      9925.195    1787.331
     4535.272      9941.892    1746.543      4574.839      9991.079    1795.205
     4669.273     10010.396    1754.971      4703.833     10059.824    1807.582
     4794.559     10073.749    1764.368      4901.127     10223.375    1915.326
     5001.777     10245.022    1886.303      5043.791     10297.120    1943.920
     5137.337     10316.157    1905.999      5181.180     10363.977    1959.803
     5262.898     10379.901    1910.703      5308.450     10425.208    1957.841
     5390.735     10448.433    1914.271      5437.342     10492.041    1955.593
     5527.855     10526.458    1921.316      5573.700     10567.729    1960.736
     5664.555     10604.269    1923.992      5706.502     10641.092    1964.075
     5810.880     10690.507    1932.365      5846.502     10721.137    1971.059
     5955.892     10775.474    1937.650      5986.380     10801.212    1974.140
     6100.307     10859.843    1941.637      6129.727     10884.301    1975.917