NOECHO

-- =============================================================================
-- 
-- Exported from Reek_base_sim
-- 
-- Exported by user asny from RMS11 at 2020-02-19 16:52:30
-- 
-- =============================================================================

MAPUNITS
'METRES  ' /

MAPAXES
456514.896 5939179.360
456514.896 5927115.549
467217.855 5927115.549 /

GRIDUNIT
'METRES  ' '        ' /

SPECGRID
  40  64  14   1  F  /

GDORIENT
INC INC INC DOWN RIGHT /

COORD
        0.000      8808.104    1738.581         0.153      8807.773    1775.313
      140.061      8889.137    1738.918       140.829      8888.837    1772.095
      280.042      8970.163    1740.350       281.604      8969.874    1772.180
      419.972      9051.168    1742.688       422.942      9050.878    1779.092
      559.789      9132.163    1744.333       564.396      9131.939    1781.445
      699.469      9213.146    1745.773       706.083      9213.029    1782.844
      838.747      9294.114    1745.659       847.910      9294.146    1782.737
      977.865      9375.053    1745.075       989.503      9375.292    1780.640
     1116.905      9455.959    1743.637      1129.880      9456.420    1775.972
     1255.435      9536.807    1740.852      1270.996      9537.588    1775.394
     1393.786      9617.592    1738.168      1413.945      9618.906    1779.573
     1532.151      9698.314    1737.040      1555.036      9700.172    1778.458
     1671.157      9779.023    1738.254      1696.956      9781.576    1777.510
     1809.752      9859.619    1738.593      1835.881      9862.732    1772.351
     1946.835      9939.890    1737.042      1972.582      9943.574    1766.285
     2085.034     10020.123    1737.403      2114.914     10025.259    1768.553
     2223.735     10100.239    1738.916      2260.163     10107.762    1775.563
     2363.188     10180.312    1742.079      2403.620     10190.316    1783.021
     2503.136     10260.334    1747.000      2544.835     10272.608    1790.215
     2644.638     10340.723    1754.687      2686.284     10355.179    1798.445
     2785.160     10420.700    1761.437      2829.709     10438.748    1807.860
     2925.378     10500.432    1766.154      2971.506     10521.955    1813.827
     3065.002     10579.742    1767.732      3111.718     10604.469    1815.298
     3204.758     10658.995    1766.714      3249.778     10685.621    1811.639
     3345.315     10738.703    1764.981      3385.611     10764.961    1805.126
     3484.566     10817.545    1762.139      3520.711     10843.190    1799.015
     3622.729     10895.505    1760.530      3657.198     10921.848    1797.494
     3761.858     10974.151    1763.397      3798.285     11003.816    1805.388
     3902.888     11054.493    1771.989      3937.003     11083.770    1814.772
     4043.308     11134.560    1784.195      4076.878     11164.562    1829.104
     4187.188     11218.042    1808.522      4224.342     11252.226    1856.858
     4332.516     11303.229    1835.201      4375.614     11343.604    1888.537
     4469.061     11380.371    1848.167      4516.311     11425.040    1906.253
     4612.513     11464.140    1869.522      4660.575     11509.713    1930.088
     4759.975     11551.781    1897.764      4803.468     11593.032    1953.834
     4902.914     11635.150    1915.978      4943.649     11673.798    1966.286
     5042.459     11715.306    1923.313      5081.191     11752.112    1971.132
     5181.458     11794.938    1925.030      5216.543     11828.372    1971.758
     5322.429     11876.443    1926.901      5354.366     11907.003    1974.006
     5463.767     11958.301    1930.439      5492.248     11985.699    1976.670
     5604.594     12039.664    1930.238      5629.519     12063.812    1976.571
       79.451      8670.465    1738.609        79.639      8670.136    1775.307
      219.542      8751.498    1738.956       220.335      8751.201    1772.129
      359.585      8832.518    1740.394       361.175      8832.235    1772.247
      499.628      8913.519    1742.735       502.634      8913.240    1779.088
      639.600      8994.515    1744.385       644.208      8994.309    1781.467
      779.407      9075.506    1745.803       785.988      9075.409    1782.858
      918.759      9156.483    1745.703       927.798      9156.535    1782.752
     1057.914      9237.431    1745.120      1069.366      9237.682    1780.634
     1197.039      9318.352    1743.685      1209.720      9318.808    1775.986
     1335.586      9399.215    1740.893      1350.579      9399.961    1775.412
     1473.868      9480.013    1738.225      1493.013      9481.236    1779.567
     1612.423      9560.770    1737.121      1634.191      9562.491    1778.465
     1751.852      9641.548    1738.303      1776.500      9643.909    1777.512
     1891.159      9722.269    1738.616      1916.036      9725.127    1772.317
     2029.300      9802.762    1737.150      2053.721      9806.126    1766.311
     2168.391      9883.260    1737.525      2196.955      9887.987    1768.644
     2307.853      9963.695    1739.113      2343.035      9970.701    1775.703
     2447.747     10044.093    1742.318      2486.967     10053.474    1783.170
     2588.036     10124.477    1747.406      2628.222     10135.950    1790.399
     2729.467     10205.138    1755.084      2769.629     10218.706    1798.677
     2869.992     10285.442    1761.771      2913.711     10302.745    1808.105
     3010.461     10365.622    1766.395      3055.762     10386.353    1814.012
     3150.515     10445.510    1767.809      3195.710     10469.059    1815.313
     3290.897     10525.498    1766.785      3333.297     10550.260    1811.597
     3432.203     10606.077    1764.897      3469.784     10630.319    1804.979
     3572.588     10686.144    1762.055      3606.072     10709.710    1798.961
     3710.543     10764.421    1760.604      3742.937     10789.020    1797.892
     3848.381     10842.443    1763.796      3882.765     10870.307    1805.988
     3987.855     10921.766    1772.438      4019.443     10948.767    1815.141
     4126.831     11000.746    1784.821      4157.390     11027.972    1829.453
     4269.480     11083.205    1809.156      4302.252     11113.270    1856.547
     4412.794     11166.550    1835.327      4450.695     11201.947    1887.578
     4548.857     11243.260    1848.208      4591.190     11283.132    1905.604
     4691.929     11326.660    1869.520      4735.388     11367.681    1929.215
     4838.410     11413.340    1897.552      4878.051     11450.725    1952.888
     4980.777     11496.151    1915.810      5019.571     11532.709    1966.021
     5120.852     11576.806    1923.282      5158.351     11612.170    1971.159
     5260.781     11657.325    1925.044      5294.849     11689.517    1971.933
     5402.566     11739.598    1926.945      5433.682     11769.100    1974.192
     5544.100     11821.636    1930.465      5572.161     11848.368    1976.836
     5684.582     11902.671    1930.263      5709.532     11926.595    1976.729
      158.898      8532.857    1736.933       159.140      8532.437    1776.211
      298.944      8613.892    1736.560       299.876      8613.542    1771.011
      438.934      8694.904    1737.557       440.681      8694.604    1768.668
      578.985      8775.892    1739.983       582.664      8775.575    1779.495
      718.953      8856.881    1741.495       724.035      8856.684    1778.258
      858.866      8937.866    1743.954       866.020      8937.793    1780.184
      997.821      9018.837    1742.934      1007.290      9018.921    1777.896
     1136.896      9099.778    1742.900      1149.653      9100.079    1778.957
     1275.875      9180.690    1741.849      1289.147      9181.171    1773.086
     1414.762      9261.569    1740.565      1430.518      9262.333    1774.232
     1552.416      9342.341    1737.201      1573.852      9343.646    1780.015
     1690.532      9423.074    1735.454      1714.372      9424.844    1777.558
     1830.720      9503.924    1737.580      1856.496      9506.217    1776.217
     1970.313      9584.695    1737.680      1994.301      9587.236    1768.807
     2108.345      9665.219    1735.456      2131.734      9668.178    1762.541
     2247.037      9745.696    1734.809      2275.875      9750.081    1765.223
     2386.404      9826.142    1735.885      2424.284      9833.096    1773.381
     2526.024      9906.496    1738.518      2566.336      9915.438    1777.633
     2665.354      9986.618    1741.902      2707.730      9997.919    1783.892
     2807.774     10067.505    1749.653      2848.886     10080.583    1791.045
     2948.994     10148.029    1756.289      2995.088     10165.360    1801.834
     3090.399     10228.598    1761.114      3135.449     10248.366    1805.747
     3231.260     10308.915    1762.896      3277.774     10332.364    1809.880
     3371.053     10388.617    1761.306      3412.875     10412.445    1804.540
     3512.503     10469.282    1759.811      3549.485     10492.718    1798.689
     3653.102     10549.521    1757.461      3684.808     10571.558    1791.926
     3787.739     10625.366    1753.052      3818.459     10648.490    1787.700
     3925.169     10702.953    1757.018      3960.986     10731.802    1800.053
     4067.942     10784.981    1771.564      4096.604     10809.379    1809.975
     4201.626     10859.317    1778.492      4231.547     10885.890    1822.258
     4346.692     10943.888    1807.491      4376.518     10971.162    1851.463
     4495.322     11032.151    1842.547      4530.327     11064.710    1892.139
     4625.134     11103.056    1847.545      4665.416     11140.779    1903.118
     4767.385     11185.673    1868.021      4810.885     11226.410    1927.217
     4920.636     11278.625    1904.054      4962.569     11317.764    1959.441
     5061.359     11359.864    1919.295      5099.494     11395.345    1966.102
     5198.520     11437.807    1922.873      5235.560     11472.212    1967.892
     5336.716     11516.722    1921.679      5371.384     11548.920    1966.972
     5478.167     11598.655    1922.404      5509.812     11628.092    1967.868
     5620.292     11681.212    1926.352      5649.349     11708.330    1971.116
     5761.008     11762.450    1926.128      5787.001     11786.834    1970.960
      238.361      8395.224    1736.579       238.644      8394.730    1776.090
      378.358      8476.283    1733.996       379.505      8475.841    1771.871
      518.323      8557.286    1735.222       520.593      8556.896    1771.288
      658.312      8638.270    1737.152       662.130      8637.952    1773.481
      798.004      8719.260    1737.200       803.921      8719.049    1775.125
      937.050      8800.239    1736.736       945.586      8800.174    1774.881
     1075.883      8881.183    1737.418      1086.431      8881.296    1771.743
     1215.204      8962.112    1739.324      1227.324      8962.406    1769.928
     1356.000      9043.080    1743.253      1370.962      9043.613    1775.086
     1495.087      9123.983    1742.910      1514.636      9124.890    1780.528
     1635.560      9204.942    1745.005      1658.538      9206.257    1785.759
     1774.372      9285.790    1743.724      1800.240      9287.570    1784.562
     1910.671      9366.396    1739.260      1934.351      9368.329    1771.560
     2049.455      9447.120    1737.842      2075.700      9449.654    1769.483
     2189.858      9527.959    1737.780      2214.409      9530.780    1764.579
     2327.391      9608.378    1735.184      2355.472      9612.255    1763.024
     2467.933      9689.103    1736.564      2507.061      9695.649    1772.223
     2606.047      9769.286    1737.309      2650.673      9778.362    1775.888
     2747.589      9850.047    1741.823      2794.471      9861.601    1782.377
     2889.429      9930.903    1747.523      2931.642      9943.427    1784.533
     3027.312     10010.384    1749.660      3071.829     10026.162    1788.873
     3165.047     10089.333    1750.010      3209.429     10107.910    1790.158
     3311.263     10171.900    1756.229      3356.373     10193.864    1798.941
     3456.398     10254.579    1760.394      3497.663     10277.554    1801.071
     3595.652     10334.207    1758.038      3633.858     10358.106    1796.548
     3737.646     10415.608    1759.135      3770.252     10438.147    1792.836
     3871.969     10491.506    1755.986      3909.188     10519.509    1795.543
     4008.147     10568.327    1760.070      4044.647     10597.813    1801.821
     4148.387     10648.372    1773.755      4177.903     10673.643    1811.768
     4290.916     10730.667    1795.928      4319.231     10755.959    1836.024
     4436.783     10816.318    1827.521      4466.858     10843.913    1871.182
     4573.412     10893.621    1846.002      4604.539     10922.582    1890.067
     4705.659     10966.831    1855.308      4741.679     11000.472    1904.599
     4853.972     11055.100    1883.983      4890.379     11089.005    1931.571
     5003.631     11144.593    1912.792      5043.203     11181.233    1960.603
     5135.054     11217.226    1915.322      5174.945     11253.947    1960.270
     5273.042     11295.976    1919.138      5306.740     11326.854    1957.196
     5415.674     11378.987    1922.663      5445.932     11406.637    1959.703
     5557.014     11460.811    1923.279      5585.315     11486.649    1961.499
     5698.154     11542.442    1925.522      5726.757     11568.589    1966.655
     5839.093     11623.879    1925.380      5864.612     11647.289    1966.426
      317.831      8257.578    1735.739       318.115      8257.082    1770.786
      457.947      8338.605    1736.023       459.070      8338.167    1769.142
      597.782      8419.656    1733.634       600.346      8419.214    1769.912
      737.166      8500.685    1730.699       741.900      8500.300    1770.503
      876.433      8581.659    1730.657       883.541      8581.420    1770.473
     1015.706      8662.605    1733.157      1024.693      8662.551    1768.229
     1155.252      8743.544    1736.858      1167.004      8743.680    1770.332
     1293.346      8824.444    1736.114      1308.520      8824.811    1770.048
     1432.675      8905.352    1737.831      1452.924      8906.048    1776.312
     1573.242      8986.299    1741.197      1596.153      8987.305    1780.223
     1716.196      9067.381    1747.343      1738.864      9068.588    1782.228
     1857.610      9148.418    1749.712      1883.226      9150.036    1784.696
     1995.801      9229.240    1747.428      2021.983      9231.183    1778.869
     2131.491      9309.797    1741.954      2159.127      9312.203    1771.792
     2267.225      9390.214    1736.584      2296.428      9393.227    1765.405
     2407.527      9470.997    1736.113      2438.131      9474.784    1763.514
     2544.329      9551.212    1733.208      2582.495      9556.946    1764.021
     2684.136      9631.691    1734.399      2730.942      9640.284    1769.373
     2825.311      9712.337    1737.331      2876.209      9723.751    1774.503
     2963.399      9792.093    1738.559      3009.606      9804.703    1772.641
     3098.284      9870.362    1737.001      3147.667      9886.670    1774.474
     3238.497      9949.806    1738.065      3283.808      9967.739    1774.461
     3383.929     10031.426    1742.217      3430.864     10053.381    1783.020
     3536.615     10117.580    1753.367      3581.086     10141.747    1794.493
     3676.727     10197.764    1753.572      3720.496     10224.876    1795.190
     3818.870     10279.338    1757.034      3859.874     10307.727    1796.818
     3954.706     10356.444    1757.344      3992.806     10385.376    1794.880
     4089.952     10432.621    1762.313      4124.398     10460.880    1799.175
     4225.466     10508.648    1772.892      4253.064     10532.766    1806.239
     4380.119     10602.026    1813.106      4417.861     10636.474    1862.783
     4523.389     10685.667    1842.597      4559.254     10719.086    1892.760
     4649.173     10752.878    1847.315      4687.952     10789.277    1901.550
     4789.197     10833.407    1869.114      4823.651     10865.638    1915.268
     4945.647     10929.216    1906.992      4978.107     10959.350    1946.881
     5084.194     11008.312    1919.122      5118.336     11039.735    1956.684
     5209.448     11075.333    1913.833      5246.542     11109.186    1951.794
     5349.175     11155.708    1918.133      5383.950     11187.206    1954.381
     5492.256     11239.123    1921.137      5525.291     11268.864    1959.243
     5632.789     11320.226    1920.345      5664.821     11348.951    1961.494
     5776.203     11403.897    1925.109      5806.266     11430.815    1966.033
     5917.289     11485.467    1924.855      5944.196     11509.589    1965.848
      397.278      8119.972    1731.286       397.562      8119.476    1762.397
      537.454      8200.955    1734.505       538.697      8200.470    1767.150
      677.314      8282.011    1732.547       680.126      8281.531    1768.037
      816.760      8363.039    1730.759       822.071      8362.617    1770.396
      955.682      8444.029    1729.495       963.006      8443.794    1765.541
     1094.217      8524.973    1729.879      1105.123      8524.919    1767.199
     1233.089      8605.889    1732.464      1247.256      8606.058    1767.952
     1371.597      8686.784    1733.707      1389.138      8687.199    1768.567
     1509.271      8767.631    1733.255      1533.842      8768.439    1774.967
     1650.301      8848.580    1738.064      1678.909      8849.755    1780.992
     1793.354      8929.641    1744.254      1823.264      8931.110    1783.833
     1936.821      9010.770    1749.172      1967.180      9012.517    1784.439
     2077.316      9091.757    1749.594      2108.092      9093.813    1781.305
     2213.311      9172.401    1744.783      2248.832      9175.165    1777.939
     2350.347      9253.036    1740.453      2385.174      9256.221    1770.282
     2486.366      9333.447    1735.290      2519.591      9337.072    1761.128
     2624.457      9413.920    1732.267      2663.085      9419.034    1759.189
     2761.801      9494.088    1730.397      2814.518      9502.647    1763.886
     2897.617      9573.636    1728.816      2959.258      9585.946    1766.321
     3031.849      9652.206    1726.580      3090.823      9666.742    1762.796
     3173.642      9732.124    1728.334      3232.020      9749.830    1765.929
     3315.504      9811.914    1729.184      3361.491      9828.925    1761.418
     3459.264      9892.440    1730.565      3513.307      9916.514    1773.191
     3610.596      9977.256    1740.144      3657.772     10002.147    1780.622
     3752.682     10058.146    1743.530      3801.271     10087.940    1786.479
     3898.003     10141.594    1751.405      3943.189     10173.096    1791.852
     4033.474     10218.293    1753.480      4076.023     10251.277    1792.114
     4171.761     10296.815    1763.404      4213.271     10331.966    1804.947
     4311.103     10376.262    1781.059      4348.392     10410.154    1823.909
     4450.765     10456.277    1805.143      4511.005     10513.606    1878.886
     4598.976     10544.859    1840.578      4642.735     10587.188    1899.654
     4731.427     10618.179    1856.275      4774.373     10659.576    1915.448
     4881.150     10707.970    1892.995      4917.415     10742.290    1940.318
     5029.428     10796.044    1918.453      5064.692     10828.823    1958.873
     5154.397     10862.561    1914.417      5193.293     10898.221    1953.581
     5284.173     10933.819    1913.386      5327.052     10972.674    1953.504
     5428.747     11018.583    1921.074      5470.265     11055.812    1961.423
     5571.654     11101.821    1923.312      5608.355     11134.420    1963.791
     5710.946     11181.845    1920.655      5745.922     11212.680    1964.309
     5854.934     11265.994    1925.861      5886.456     11293.653    1967.099
     5996.094     11347.633    1925.565      6024.456     11372.483    1966.990
      476.694      7982.420    1724.295       476.967      7981.943    1750.830
      616.692      8063.408    1726.373       618.029      8062.893    1757.643
      756.715      8144.386    1729.557       759.906      8143.852    1765.737
      896.466      8225.385    1731.003       901.654      8224.984    1765.773
     1035.431      8306.384    1730.313      1043.288      8306.143    1764.808
     1174.939      8387.332    1733.760      1187.495      8387.279    1772.040
     1312.676      8468.257    1732.666      1327.665      8468.437    1766.119
     1449.201      8549.112    1730.376      1469.241      8549.572    1766.164
     1587.520      8629.973    1731.753      1611.699      8630.728    1768.750
     1728.156      8710.904    1736.147      1758.327      8712.060    1776.260
     1865.711      8791.702    1735.768      1902.210      8793.345    1777.583
     2011.747      8872.900    1743.704      2050.286      8874.906    1781.957
     2156.548      8954.105    1748.218      2193.083      8956.289    1780.326
     2299.089      9035.232    1748.787      2337.175      9037.854    1779.030
     2438.303      9116.155    1745.122      2477.232      9119.269    1773.395
     2578.085      9197.127    1740.942      2619.536      9201.044    1768.432
     2709.460      9277.159    1731.793      2752.025      9282.027    1757.382
     2844.834      9357.323    1727.552      2898.402      9364.867    1756.466
     2978.009      9436.722    1724.057      3046.229      9448.581    1758.647
     3109.629      9514.990    1720.121      3182.695      9530.925    1758.006
     3252.073      9594.992    1721.243      3319.661      9613.508    1758.428
     3391.840      9673.975    1719.976      3452.521      9694.651    1756.895
     3537.205      9754.809    1720.902      3589.037      9776.513    1757.813
     3679.204      9834.430    1723.098      3737.681      9864.081    1769.097
     3825.282      9916.560    1730.697      3878.667      9948.805    1774.090
     3969.093      9998.161    1737.934      4021.921     10035.332    1781.433
     4106.428     10075.364    1743.132      4159.177     10117.556    1787.609
     4247.825     10155.857    1756.618      4297.285     10199.918    1803.530
     4397.468     10244.956    1786.077      4432.421     10278.765    1825.577
     4524.263     10312.421    1796.339      4598.687     10388.019    1887.086
     4685.241     10414.838    1848.838      4725.651     10456.474    1901.836
     4825.606     10495.744    1876.734      4866.222     10536.833    1931.464
     4975.447     10585.394    1913.678      5010.156     10619.105    1957.278
     5107.479     10657.668    1919.977      5143.806     10691.708    1959.261
     5231.622     10723.310    1915.847      5276.944     10764.793    1958.246
     5366.830     10799.515    1919.395      5414.755     10842.661    1961.195
     5508.479     10881.604    1923.861      5553.390     10921.492    1965.439
     5648.645     10962.405    1922.945      5684.016     10993.427    1960.946
     5790.901     11045.051    1923.080      5824.415     11074.118    1964.557
     5935.550     11129.728    1929.131      5966.968     11156.753    1969.194
     6076.648     11211.313    1928.802      6104.983     11235.577    1969.030
      556.106      7844.875    1718.196       556.383      7844.392    1742.622
      695.914      7925.863    1719.319       697.194      7925.380    1746.305
      835.691      8006.830    1722.342       839.176      8006.263    1758.256
      975.228      8087.802    1724.897       981.853      8087.307    1765.356
     1115.269      8168.737    1730.743      1125.240      8168.446    1770.498
     1255.710      8249.693    1736.482      1267.842      8249.649    1769.943
     1392.861      8330.633    1733.562      1409.144      8330.826    1766.412
     1529.448      8411.503    1731.505      1548.987      8411.933    1763.297
     1667.090      8492.362    1731.823      1692.382      8493.103    1767.190
     1805.458      8573.222    1733.091      1838.052      8574.369    1772.196
     1942.933      8654.025    1733.081      1984.117      8655.704    1774.896
     2084.799      8734.996    1736.845      2128.330      8737.020    1774.749
     2230.111      8816.160    1741.625      2270.447      8818.287    1772.573
     2375.046      8897.364    1743.226      2406.465      8899.247    1764.786
     2522.958      8978.856    1743.775      2556.929      8981.188    1764.899
     2667.328      9060.255    1740.184      2707.649      9063.479    1763.317
     2797.812      9140.524    1729.328      2850.265      9145.559    1757.182
     2932.475      9220.958    1723.715      2999.757      9228.972    1755.301
     3058.596      9299.786    1716.735      3143.678      9312.453    1754.201
     3193.753      9379.073    1714.513      3276.620      9394.788    1752.813
     3333.673      9458.730    1714.891      3414.463      9478.337    1753.998
     3472.907      9537.775    1713.889      3544.579      9559.837    1751.992
     3615.047      9617.346    1712.538      3681.381      9642.960    1754.572
     3750.729      9693.697    1710.839      3810.163      9722.122    1752.856
     3893.039      9772.422    1715.548      3953.950      9808.165    1760.763
     4039.181      9853.947    1724.148      4095.028      9893.427    1767.104
     4175.692      9928.861    1728.848      4240.114      9982.383    1780.668
     4318.942     10009.503    1742.808      4378.807     10066.583    1798.159
     4458.238     10087.508    1758.013      4507.174     10139.138    1813.835
     4591.360     10159.702    1773.100      4686.267     10266.399    1894.388
     4717.520     10225.285    1781.770      4819.220     10340.799    1913.972
     4924.548     10380.845    1897.478      4966.869     10426.868    1954.039
     5064.331     10458.746    1921.523      5100.364     10495.239    1966.021
     5185.734     10519.595    1917.708      5223.386     10555.490    1957.221
     5310.152     10585.260    1915.570      5357.309     10628.482    1957.605
     5450.542     10666.127    1924.039      5500.134     10710.463    1965.459
     5591.094     10747.170    1928.377      5632.758     10783.769    1966.057
     5730.399     10827.182    1927.556      5766.721     10858.589    1966.010
     5874.066     10910.984    1929.607      5907.293     10939.305    1970.566
     6018.042     10995.002    1934.779      6049.795     11021.754    1974.412
     6159.175     11076.600    1934.494      6187.747     11100.488    1974.314
      635.572      7707.237    1717.243       635.893      7706.676    1744.298
      775.323      7788.242    1717.213       776.683      7787.746    1743.678
      915.130      7869.194    1720.633       918.569      7868.657    1753.307
     1054.397      7950.184    1721.735      1060.223      7949.770    1754.554
     1193.444      8031.137    1724.506      1203.656      8030.857    1762.034
     1332.893      8112.066    1729.017      1347.144      8112.026    1764.919
     1472.254      8193.000    1732.235      1489.835      8193.205    1764.753
     1609.821      8273.897    1732.034      1630.804      8274.335    1763.557
     1749.526      8354.830    1734.806      1778.680      8355.620    1772.584
     1885.958      8435.659    1732.932      1922.911      8436.834    1773.819
     2023.362      8516.489    1732.446      2069.504      8518.153    1775.425
     2158.979      8597.218    1730.862      2206.768      8599.153    1768.953
     2304.006      8678.320    1735.245      2348.417      8680.334    1766.371
     2450.172      8759.521    1736.491      2486.979      8761.396    1759.256
     2600.050      8841.012    1735.752      2637.468      8843.166    1756.504
     2743.659      8922.265    1729.317      2794.272      8925.593    1755.340
     2884.682      9003.456    1722.408      2949.460      9008.426    1753.652
     3013.169      9083.598    1712.964      3091.330      9090.970    1746.842
     3139.360      9162.774    1705.535      3222.658      9173.134    1742.391
     3281.639      9243.467    1707.614      3363.935      9256.845    1744.195
     3419.957      9323.332    1709.013      3495.035      9339.182    1742.816
     3549.633      9400.345    1705.425      3629.935      9422.227    1743.933
     3692.491      9480.011    1706.510      3761.406      9503.968    1744.641
     3832.727      9558.480    1708.438      3915.544      9594.663    1759.680
     3971.918      9635.437    1710.615      4046.620      9676.902    1760.703
     4112.400      9712.052    1713.705      4174.566      9755.760    1758.905
     4252.177      9787.812    1719.658      4320.005      9846.376    1773.141
     4394.209      9865.865    1730.364      4458.235      9931.708    1789.904
     4535.188      9944.133    1743.426      4586.352     10004.597    1804.348
     4670.134     10014.748    1754.693      4709.468     10068.292    1811.814
     4794.752     10077.346    1763.247      4904.505     10226.477    1916.181
     5006.267     10250.856    1891.497      5048.928     10302.377    1950.402
     5140.552     10319.922    1909.475      5182.254     10364.277    1961.517
     5268.882     10386.275    1915.825      5309.659     10425.930    1958.261
     5399.131     10456.785    1920.552      5439.259     10493.615    1955.489
     5534.770     10533.139    1926.263      5582.073     10575.022    1965.022
     5671.750     10610.985    1929.419      5716.961     10650.113    1970.118
     5815.286     10694.579    1934.713      5855.484     10728.719    1976.650
     5956.972     10776.593    1936.157      5992.282     10806.080    1978.484
     6101.149     10860.673    1940.580      6134.244     10887.917    1980.661