NOECHO

-- =============================================================================
-- 
-- Exported from Reek_base_sim
-- 
-- Exported by user asny from RMS11 at 2020-02-19 16:24:14
-- 
-- =============================================================================

MAPUNITS
'METRES  ' /

MAPAXES
456514.881 5939173.720
456514.881 5927115.548
467218.344 5927115.548 /

GRIDUNIT
'METRES  ' '        ' /

SPECGRID
  40  64  14   1  F  /

GDORIENT
INC INC INC DOWN RIGHT /

COORD
        0.000      8808.129    1736.605         0.161      8807.793    1762.479
      140.035      8889.166    1737.621       140.762      8888.857    1760.731
      280.013      8970.186    1740.712       281.541      8969.872    1762.674
      419.907      9051.191    1742.974       422.727      9050.878    1766.849
      559.625      9132.190    1743.882       563.602      9131.958    1767.109
      699.322      9213.172    1745.627       704.969      9213.028    1771.526
      838.427      9294.146    1746.719       846.896      9294.119    1779.080
      977.127      9375.084    1747.386       988.666      9375.248    1784.739
     1115.793      9455.981    1747.528      1129.733      9456.389    1782.895
     1254.847      9536.855    1747.373      1271.764      9537.589    1780.996
     1392.970      9617.639    1744.595      1414.095      9618.861    1779.697
     1530.915      9698.339    1742.311      1554.799      9700.088    1776.697
     1668.847      9778.951    1740.663      1694.693      9781.280    1773.532
     1806.869      9859.462    1739.941      1834.484      9862.483    1771.327
     1945.823      9939.953    1740.906      1975.542      9943.891    1771.461
     2083.353     10020.073    1740.451      2115.077     10025.176    1770.638
     2221.784     10100.089    1740.848      2254.832     10106.550    1771.105
     2362.050     10180.265    1743.514      2397.509     10188.666    1776.242
     2502.675     10260.398    1748.029      2538.755     10270.682    1782.576
     2643.688     10340.552    1754.200      2678.152     10352.241    1788.513
     2784.453     10420.541    1759.778      2822.979     10435.886    1798.727
     2922.057     10499.014    1760.348      2963.763     10518.207    1799.678
     3060.021     10577.264    1759.395      3104.711     10600.607    1799.620
     3201.478     10657.250    1760.390      3245.642     10682.979    1800.605
     3343.669     10737.874    1761.623      3384.203     10763.807    1800.207
     3483.244     10816.932    1760.924      3522.040     10843.873    1800.021
     3621.932     10895.310    1761.664      3659.576     10923.412    1801.976
     3761.625     10974.407    1766.855      3800.115     11005.035    1811.069
     3902.813     11054.839    1776.118      3937.215     11083.746    1819.327
     4043.250     11134.869    1788.924      4076.051     11163.662    1832.621
     4187.507     11218.589    1814.706      4223.384     11251.124    1859.955
     4333.762     11304.549    1841.444      4373.340     11341.217    1888.814
     4470.502     11381.904    1852.367      4511.525     11420.358    1902.660
     4614.190     11465.874    1872.314      4652.913     11502.350    1921.087
     4763.011     11554.762    1900.746      4798.722     11588.466    1943.823
     4904.803     11637.042    1916.835      4940.929     11671.198    1959.260
     5042.356     11715.313    1922.213      5077.077     11748.227    1963.491
     5180.969     11794.571    1924.223      5210.447     11822.617    1962.367
     5321.845     11875.971    1927.877      5347.967     11900.940    1965.671
     5462.628     11957.272    1932.362      5485.792     11979.549    1969.278
     5603.219     12038.384    1932.119      5623.644     12058.172    1969.107
       79.451      8670.491    1736.645        79.635      8670.168    1762.484
      219.513      8751.527    1737.666       220.241      8751.229    1760.770
      359.561      8832.539    1740.738       361.082      8832.235    1762.693
      499.589      8913.538    1743.000       502.405      8913.237    1766.832
      639.511      8994.537    1743.937       643.427      8994.321    1767.157
      779.375      9075.528    1745.673       784.822      9075.403    1771.578
      918.420      9156.514    1746.775       926.455      9156.505    1779.108
     1057.108      9237.462    1747.437      1068.036      9237.630    1784.722
     1195.906      9318.374    1747.585      1209.229      9318.768    1782.909
     1335.109      9399.268    1747.400      1351.366      9399.969    1781.003
     1473.434      9480.082    1744.661      1493.713      9481.233    1779.697
     1611.694      9560.832    1742.354      1634.264      9562.440    1776.699
     1750.142      9641.528    1740.719      1774.131      9643.617    1773.535
     1888.822      9722.167    1740.025      1913.919      9724.808    1771.339
     2028.381      9802.814    1740.966      2055.020      9806.205    1771.467
     2166.863      9883.205    1740.553      2195.469      9887.625    1770.649
     2306.301      9963.583    1741.027      2336.809      9969.327    1771.166
     2447.252     10044.142    1743.759      2480.837     10051.837    1776.436
     2588.020     10124.604    1748.402      2622.497     10134.150    1782.701
     2728.658     10204.958    1754.551      2762.277     10216.085    1788.847
     2869.520     10285.312    1759.956      2907.992     10300.335    1798.940
     3008.003     10364.544    1760.412      3048.806     10383.036    1799.731
     3146.966     10443.713    1759.535      3189.257     10465.546    1799.775
     3288.719     10524.298    1760.597      3329.049     10547.584    1800.723
     3430.733     10605.235    1761.613      3467.389     10628.519    1800.272
     3570.936     10685.145    1760.993      3606.050     10709.377    1800.134
     3709.512     10763.879    1761.873      3744.327     10789.726    1802.414
     3848.372     10842.725    1767.374      3884.101     10871.019    1811.616
     3987.829     10922.039    1776.533      4019.500     10948.542    1819.657
     4127.063     11001.234    1789.632      4156.771     11027.221    1833.011
     4270.688     11084.508    1815.575      4301.639     11112.483    1859.720
     4414.514     11168.287    1841.610      4448.389     11199.560    1887.915
     4550.259     11244.746    1852.398      4586.204     11278.301    1902.190
     4693.159     11327.971    1872.212      4727.198     11359.873    1920.304
     4840.947     11415.845    1900.432      4872.651     11445.581    1942.819
     4982.657     11498.036    1916.690      5016.473     11529.777    1958.826
     5120.790     11576.868    1922.201      5154.418     11608.486    1963.533
     5260.194     11656.882    1924.236      5289.117     11684.156    1962.542
     5401.768     11738.938    1927.916      5427.399     11763.206    1965.776
     5542.922     11820.594    1932.381      5565.886     11842.455    1969.369
     5683.338     11901.542    1932.135      5703.814     11921.169    1969.196
      158.888      8532.903    1734.490       159.128      8532.483    1763.012
      298.861      8613.947    1734.715       299.705      8613.598    1758.633
      438.878      8694.936    1738.205       440.616      8694.596    1761.056
      578.971      8775.913    1741.068       582.425      8775.563    1767.826
      718.605      8856.921    1740.336       722.579      8856.723    1762.061
      858.350      8937.903    1742.234       863.726      8937.803    1765.773
      997.066      9018.878    1742.993      1005.481      9018.895    1774.689
     1136.031      9099.818    1744.969      1149.904      9100.059    1788.058
     1274.586      9180.722    1745.035      1289.367      9181.168    1781.246
     1414.082      9261.628    1746.033      1431.325      9262.355    1779.383
     1551.371      9342.396    1742.092      1574.521      9343.650    1779.575
     1690.481      9423.208    1741.362      1714.568      9424.816    1776.275
     1828.567      9503.899    1739.136      1852.897      9505.858    1771.421
     1966.587      9584.497    1737.361      1990.399      9586.795    1766.958
     2106.839      9665.231    1738.853      2133.225      9668.298    1769.605
     2244.417      9745.528    1736.945      2272.512      9749.497    1766.989
     2384.302      9825.975    1737.419      2413.367      9831.002    1765.897
     2525.924      9906.646    1740.353      2559.373      9913.750    1771.549
     2665.902      9986.889    1743.550      2704.057      9996.784    1779.194
     2808.137     10067.676    1750.243      2842.441     10078.426    1782.841
     2950.722     10148.675    1756.140      2992.423     10164.263    1795.366
     3085.778     10226.532    1752.805      3126.661     10244.454    1790.582
     3226.387     10306.395    1753.282      3268.498     10327.627    1793.279
     3369.244     10387.538    1755.761      3408.146     10409.642    1795.493
     3511.062     10468.365    1757.102      3545.235     10489.837    1794.218
     3650.367     10547.693    1755.569      3684.952     10571.375    1794.667
     3786.284     10624.475    1753.813      3819.431     10648.936    1792.149
     3925.024     10703.116    1759.935      3961.989     10732.246    1805.151
     4066.699     10784.184    1773.571      4096.361     10808.908    1813.660
     4201.371     10859.419    1782.055      4231.301     10885.509    1825.727
     4348.757     10945.957    1814.084      4377.558     10971.891    1856.341
     4497.498     11034.241    1848.747      4529.308     11063.468    1894.175
     4627.559     11105.499    1852.792      4661.288     11136.785    1901.209
     4768.528     11186.919    1870.535      4800.752     11216.865    1917.035
     4922.785     11280.736    1907.431      4951.732     11307.587    1946.151
     5062.564     11361.110    1919.942      5096.677     11392.698    1961.270
     5197.577     11437.081    1921.146      5231.236     11468.230    1960.784
     5334.643     11514.945    1919.726      5363.906     11542.049    1956.501
     5477.751     11598.397    1924.368      5504.995     11623.685    1962.230
     5619.817     11680.878    1929.244      5644.293     11703.683    1965.860
     5760.472     11762.037    1928.998      5782.400     11782.584    1965.677
      238.377      8395.223    1737.524       238.676      8394.701    1767.199
      378.402      8476.289    1736.441       379.445      8475.845    1762.921
      518.199      8557.336    1735.610       520.021      8556.978    1757.601
      658.139      8638.312    1737.656       661.528      8637.978    1761.911
      797.633      8719.310    1736.994       802.434      8719.086    1761.032
      935.975      8800.302    1734.351       942.307      8800.202    1759.139
     1074.733      8881.240    1736.430      1084.342      8881.278    1768.362
     1214.048      8962.166    1740.281      1228.505      8962.429    1779.742
     1352.686      9043.062    1741.553      1371.435      9043.622    1782.612
     1493.925      9124.034    1746.419      1515.958      9124.925    1785.011
     1632.966      9204.917    1745.559      1657.016      9206.139    1780.902
     1771.482      9285.738    1743.933      1798.104      9287.378    1779.293
     1909.145      9366.449    1741.157      1932.884      9368.192    1770.624
     2044.823      9446.904    1736.437      2070.269      9449.125    1766.912
     2185.803      9527.727    1738.613      2211.169      9530.381    1767.762
     2324.018      9608.167    1736.811      2350.602      9611.550    1764.804
     2463.882      9688.667    1736.553      2494.264      9693.427    1765.098
     2606.433      9769.540    1739.572      2646.002      9777.228    1773.483
     2751.046      9850.982    1745.457      2789.237      9860.151    1777.164
     2887.228      9930.283    1745.272      2927.486      9942.110    1778.887
     3024.970     10009.507    1745.493      3062.824     10022.947    1777.441
     3162.678     10088.208    1744.022      3201.862     10104.746    1777.765
     3311.763     10171.996    1752.182      3349.518     10190.567    1787.028
     3457.770     10255.206    1759.166      3496.225     10276.770    1798.176
     3593.045     10332.454    1755.215      3630.219     10355.705    1795.331
     3729.341     10409.830    1751.727      3764.200     10433.719    1789.839
     3867.608     10488.301    1753.487      3900.794     10512.876    1789.932
     4005.773     10566.583    1760.015      4046.114     10598.536    1807.064
     4145.103     10645.764    1772.458      4175.104     10670.951    1811.350
     4287.647     10727.893    1794.357      4318.194     10754.701    1837.388
     4437.968     10817.393    1831.860      4462.019     10839.128    1866.690
     4575.191     10895.315    1850.961      4603.823     10921.627    1892.070
     4708.663     10969.763    1860.938      4739.476     10998.261    1905.162
     4855.916     11057.014    1888.200      4885.817     11084.638    1930.445
     5004.892     11145.845    1916.050      5038.735     11176.977    1958.937
     5137.389     11219.528    1917.974      5172.422     11251.610    1957.885
     5272.883     11296.011    1919.110      5306.688     11326.860    1956.584
     5413.609     11377.275    1921.609      5442.216     11403.328    1955.457
     5555.857     11459.911    1924.630      5581.986     11483.702    1958.665
     5697.824     11542.277    1928.556      5722.720     11564.986    1963.138
     5838.728     11623.661    1928.336      5860.997     11644.054    1962.914
      317.866      8257.542    1738.660       318.157      8257.034    1763.513
      458.034      8338.588    1738.914       459.009      8338.167    1761.179
      597.856      8419.668    1736.455       600.003      8419.248    1760.334
      737.192      8500.721    1733.606       740.968      8500.357    1758.704
      876.633      8581.700    1733.956       882.734      8581.429    1761.862
     1015.812      8662.665    1735.464      1022.903      8662.565    1760.291
     1154.637      8743.614    1737.539      1164.762      8743.665    1766.703
     1291.778      8824.511    1735.885      1307.902      8824.809    1774.163
     1430.449      8905.400    1738.080      1449.720      8905.959    1775.274
     1570.352      8986.316    1741.247      1595.059      8987.260    1779.639
     1712.610      9067.338    1745.739      1739.604      9068.608    1780.970
     1854.126      9148.351    1748.017      1883.324      9149.991    1782.519
     1991.359      9229.100    1745.069      2016.523      9230.763    1773.426
     2125.274      9309.513    1738.708      2153.923      9311.744    1770.613
     2262.943      9390.068    1737.097      2295.040      9393.049    1771.955
     2403.453      9470.790    1737.193      2435.850      9474.444    1769.432
     2543.378      9551.352    1735.935      2582.365      9556.791    1769.904
     2684.464      9631.973    1736.511      2723.717      9638.825    1766.515
     2831.677      9713.862    1742.299      2876.016      9723.549    1773.913
     2966.364      9792.931    1739.753      3008.820      9804.450    1769.756
     3103.414      9871.971    1738.273      3146.128      9886.198    1769.425
     3241.686      9950.856    1736.582      3286.074      9968.727    1771.154
     3387.448     10032.812    1741.506      3433.429     10054.759    1781.636
     3534.429     10116.155    1750.009      3578.085     10140.298    1792.649
     3673.581     10195.579    1751.335      3715.229     10221.619    1794.178
     3813.172     10275.214    1753.000      3854.393     10303.715    1794.998
     3949.123     10352.135    1753.787      3986.887     10380.503    1792.009
     4090.075     10432.720    1764.881      4125.251     10461.102    1803.009
     4227.667     10510.608    1777.894      4252.819     10532.225    1808.306
     4380.770     10602.453    1816.084      4417.099     10635.124    1863.533
     4525.372     10687.306    1847.328      4557.235     10716.583    1891.734
     4649.107     10752.845    1848.968      4682.942     10784.222    1896.625
     4789.489     10833.742    1870.755      4821.720     10863.608    1915.456
     4944.673     10928.317    1908.343      4978.280     10959.273    1952.507
     5082.491     11006.825    1919.081      5120.236     11041.343    1962.984
     5209.734     11075.780    1914.357      5247.459     11110.028    1954.132
     5346.863     11153.825    1916.409      5378.121     11182.017    1948.986
     5491.480     11238.618    1922.430      5519.600     11263.847    1954.032
     5632.731     11320.356    1923.670      5659.602     11344.384    1956.917
     5776.109     11403.974    1928.684      5801.656     11426.794    1961.960
     5917.221     11485.544    1928.391      5940.107     11506.024    1961.715
      397.299      8119.961    1733.911       397.666      8119.321    1761.931
      537.506      8200.952    1736.447       538.729      8200.426    1761.996
      677.700      8281.964    1738.085       680.384      8281.444    1765.756
      817.112      8363.047    1734.661       821.227      8362.659    1760.146
      955.839      8444.080    1731.516       961.343      8443.848    1754.809
     1095.108      8525.039    1733.960      1103.426      8524.936    1760.611
     1233.076      8605.984    1734.200      1245.113      8606.055    1765.127
     1369.996      8686.872    1733.245      1389.830      8687.238    1774.898
     1508.722      8767.765    1736.041      1529.858      8768.353    1772.162
     1646.745      8848.619    1736.916      1675.357      8849.641    1776.331
     1789.656      8929.653    1742.622      1818.740      8930.908    1776.320
     1932.347      9010.711    1746.439      1963.534      9012.292    1779.163
     2072.806      9091.669    1747.461      2102.327      9093.410    1777.162
     2209.262      9172.347    1744.301      2242.268      9174.617    1777.242
     2344.769      9252.845    1740.253      2384.148      9256.049    1778.584
     2483.949      9333.521    1738.184      2525.452      9337.598    1775.369
     2621.909      9413.931    1733.959      2665.862      9419.277    1768.260
     2763.114      9494.582    1732.998      2810.135      9501.796    1764.297
     2908.543      9575.972    1735.459      2955.855      9585.161    1763.852
     3040.209      9654.324    1730.253      3079.768      9664.040    1753.522
     3179.679      9733.851    1729.157      3227.487      9748.555    1758.687
     3317.813      9812.479    1726.528      3365.569      9830.586    1759.468
     3459.692      9892.197    1727.821      3512.058      9916.224    1769.919
     3604.534      9973.588    1734.328      3651.378      9999.003    1776.958
     3750.094     10056.155    1742.327      3793.285     10083.158    1782.997
     3892.018     10137.092    1747.562      3932.084     10165.225    1784.691
     4029.043     10214.631    1751.362      4071.826     10247.640    1790.758
     4173.962     10298.484    1767.960      4211.025     10329.499    1805.116
     4315.121     10379.694    1787.793      4343.853     10405.473    1820.689
     4453.530     10458.649    1810.436      4506.720     10508.732    1875.278
     4600.932     10546.436    1844.897      4639.785     10583.595    1897.147
     4732.479     10619.040    1858.833      4768.728     10653.610    1908.417
     4882.240     10708.862    1895.047      4915.243     10739.825    1938.552
     5028.876     10795.458    1919.842      5065.150     10828.935    1963.389
     5151.363     10859.894    1912.201      5195.756     10900.354    1959.271
     5281.834     10931.903    1910.880      5328.416     10973.910    1956.577
     5425.370     11015.767    1918.401      5465.194     11051.333    1958.062
     5570.292     11100.813    1924.314      5601.413     11128.368    1958.208
     5711.604     11182.619    1925.254      5740.057     11207.638    1959.438
     5855.342     11266.525    1930.172      5881.569     11289.489    1962.723
     5996.666     11348.286    1929.902      6020.238     11368.905    1962.568
      476.699      7982.437    1726.482       477.062      7981.804    1752.268
      616.788      8063.396    1729.588       618.031      8062.869    1753.797
      756.838      8144.394    1731.586       759.494      8143.892    1757.125
      896.496      8225.423    1731.358       901.851      8224.938    1762.221
     1035.826      8306.429    1731.458      1042.978      8306.146    1759.835
     1174.631      8387.413    1732.490      1184.543      8387.305    1762.229
     1312.427      8468.363    1733.017      1329.058      8468.473    1772.374
     1449.800      8549.268    1733.620      1471.860      8549.668    1775.653
     1586.606      8630.128    1733.473      1611.193      8630.778    1771.262
     1725.958      8711.038    1736.562      1755.488      8712.015    1773.190
     1863.583      8791.872    1736.458      1896.136      8793.146    1770.540
     2005.503      8872.862    1740.083      2039.397      8874.398    1772.163
     2152.180      8954.108    1747.164      2183.336      8955.733    1775.126
     2293.156      9035.099    1748.001      2328.155      9037.205    1778.540
     2430.299      9115.829    1744.500      2473.097      9118.841    1780.469
     2573.876      9197.015    1744.226      2613.927      9200.385    1775.399
     2708.455      9277.377    1735.531      2751.288      9281.837    1764.961
     2848.187      9358.086    1731.255      2895.297      9364.333    1758.125
     2981.976      9437.653    1725.786      3028.212      9445.465    1748.906
     3114.747      9516.218    1720.975      3168.828      9527.976    1747.746
     3257.987      9596.529    1721.044      3323.413      9614.769    1755.463
     3399.210      9676.201    1719.899      3451.791      9694.680    1751.636
     3534.679      9753.172    1716.938      3585.658      9775.340    1753.463
     3676.183      9832.145    1720.615      3733.222      9862.179    1766.865
     3821.727      9913.709    1728.744      3878.574      9949.064    1776.652
     3965.743      9995.233    1736.620      4013.600     10029.441    1776.783
     4109.976     10077.778    1748.168      4156.652     10115.206    1787.504
     4249.778     10157.237    1760.983      4293.063     10195.602    1801.665
     4398.917     10245.908    1790.018      4428.879     10274.704    1823.685
     4525.726     10313.444    1800.179      4592.859     10381.264    1882.138
     4687.682     10416.732    1853.706      4719.368     10449.152    1894.968
     4826.908     10496.553    1878.814      4858.936     10528.692    1921.254
     4976.025     10585.581    1914.038      5008.546     10616.934    1954.700
     5107.142     10657.221    1920.211      5144.490     10691.996    1961.651
     5228.122     10720.191    1912.593      5273.032     10761.087    1956.482
     5361.985     10795.322    1914.240      5408.689     10837.201    1957.566
     5506.783     10880.290    1922.568      5543.251     10912.571    1958.034
     5645.854     10960.166    1922.531      5678.162     10988.427    1957.328
     5789.652     11044.167    1925.846      5819.375     11069.895    1961.166
     5935.210     11129.616    1932.339      5962.665     11153.196    1965.324
     6076.793     11211.600    1932.010      6101.457     11232.694    1965.151
      556.128      7844.863    1720.971       556.571      7844.089    1751.418
      696.044      7925.845    1722.298       697.619      7925.196    1751.488
      835.920      8006.830    1724.613       839.262      8006.221    1754.958
      975.438      8087.837    1725.335       981.895      8087.278    1760.178
     1114.986      8168.813    1727.555      1122.980      8168.516    1757.341
     1254.370      8249.787    1731.014      1263.940      8249.697    1757.985
     1391.497      8330.744    1730.649      1410.991      8330.881    1773.778
     1528.241      8411.646    1730.760      1552.937      8412.079    1774.415
     1666.062      8492.546    1732.766      1694.541      8493.248    1773.155
     1803.721      8573.425    1733.881      1835.864      8574.393    1770.746
     1940.101      8654.238    1733.161      1979.761      8655.624    1771.749
     2081.752      8735.214    1736.948      2117.274      8736.631    1768.100
     2223.190      8816.180    1739.391      2260.961      8817.895    1770.177
     2368.070      8897.320    1742.472      2406.038      8899.289    1771.533
     2516.864      8978.751    1745.845      2561.262      8981.411    1777.754
     2662.283      9060.120    1743.977      2706.733      9063.267    1773.648
     2795.395      9140.618    1732.905      2841.545      9144.639    1760.588
     2930.960      9221.102    1724.850      2986.899      9227.402    1752.226
     3064.613      9300.962    1718.948      3126.642      9309.963    1745.585
     3192.741      9379.059    1712.143      3248.954      9389.688    1736.872
     3337.993      9459.753    1713.222      3401.434      9475.462    1742.556
     3474.716      9538.022    1710.255      3533.026      9556.632    1740.898
     3611.316      9615.236    1708.544      3669.375      9638.683    1744.567
     3750.694      9692.691    1710.765      3809.000      9721.899    1751.799
     3892.405      9770.958    1715.745      3949.206      9805.585    1758.315
     4038.658      9852.669    1725.212      4088.104      9888.475    1763.382
     4177.335      9929.466    1732.642      4232.075      9975.415    1776.089
     4322.193     10011.952    1748.762      4372.104     10059.679    1794.267
     4460.379     10089.033    1763.329      4496.860     10127.579    1804.868
     4592.886     10160.507    1777.479      4679.441     10257.947    1889.052
     4719.134     10226.286    1786.244      4817.977     10338.202    1913.636
     4922.901     10378.106    1894.713      4961.639     10419.981    1945.434
     5065.039     10458.855    1920.903      5098.779     10492.827    1961.997
     5184.866     10518.550    1915.895      5223.223     10554.918    1956.413
     5306.357     10581.816    1911.434      5351.130     10622.674    1952.661
     5443.103     10659.613    1916.804      5493.168     10704.223    1961.286
     5584.492     10741.552    1922.462      5620.918     10773.465    1957.459
     5727.008     10824.447    1926.402      5762.989     10855.499    1965.185
     5872.159     10909.553    1931.608      5903.257     10936.025    1968.502
     6017.477     10994.708    1937.050      6046.361     11019.025    1971.036
     6159.341     11076.904    1936.750      6185.154     11098.479    1970.964
      635.607      7707.201    1718.994       636.072      7706.389    1750.934
      775.351      7788.266    1716.459       777.270      7787.506    1750.858
      915.030      7869.253    1718.493       918.874      7868.587    1751.804
     1054.699      7950.219    1721.509      1061.176      7949.693    1754.391
     1192.931      8031.238    1719.797      1202.826      8030.897    1754.042
     1331.091      8112.190    1721.413      1345.531      8112.072    1758.895
     1470.046      8193.127    1726.655      1490.889      8193.275    1769.290
     1609.196      8274.077    1731.459      1635.406      8274.507    1774.837
     1747.003      8355.008    1733.099      1779.779      8355.740    1776.900
     1883.521      8435.893    1732.752      1919.374      8436.845    1771.750
     2020.721      8516.773    1733.203      2065.519      8518.124    1774.837
     2160.147      8597.693    1735.213      2200.292      8599.059    1768.752
     2298.329      8678.541    1734.772      2340.547      8680.162    1766.913
     2447.163      8759.810    1738.995      2488.567      8761.615    1767.440
     2596.332      8841.184    1739.213      2642.500      8843.495    1768.110
     2737.185      8922.220    1731.513      2792.617      8925.458    1763.424
     2875.912      9003.156    1722.286      2935.628      9007.347    1753.318
     3008.918      9083.573    1712.885      3077.362      9089.730    1742.896
     3138.224      9163.004    1705.048      3216.807      9172.526    1738.426
     3277.344      9243.009    1704.108      3349.873      9254.800    1734.725
     3415.884      9322.500    1703.588      3478.950      9336.141    1730.617
     3547.558      9399.439    1699.872      3613.530      9418.179    1730.862
     3690.994      9478.827    1702.986      3744.103      9498.262    1731.663
     3828.238      9555.421    1704.843      3892.831      9585.184    1744.040
     3972.120      9634.284    1711.101      4031.501      9668.789    1750.821
     4113.164      9711.333    1716.201      4171.112      9753.362    1758.088
     4256.985      9790.904    1726.530      4314.338      9841.259    1770.845
     4399.047      9869.848    1738.234      4446.546      9919.119    1781.868
     4537.740      9945.933    1749.580      4570.458      9984.943    1788.919
     4671.391     10014.489    1758.525      4697.657     10050.869    1797.793
     4797.608     10079.431    1769.141      4899.505     10218.263    1910.698
     5001.885     10244.063    1883.857      5041.428     10291.527    1937.003
     5142.249     10320.904    1908.999      5181.249     10362.184    1956.643
     5265.336     10382.498    1910.051      5309.469     10425.222    1955.627
     5392.313     10450.487    1913.325      5443.796     10497.557    1959.015
     5528.340     10527.545    1920.326      5577.329     10570.798    1962.525
     5664.994     10605.304    1923.507      5704.045     10639.034    1960.714
     5812.410     10692.320    1933.821      5848.406     10722.855    1972.564
     5957.494     10777.219    1939.711      5989.328     10803.794    1977.183
     6101.734     10861.340    1942.884      6131.997     10886.259    1978.013