NOECHO

-- =============================================================================
-- 
-- Exported from Reek_base_sim
-- 
-- Exported by user asny from RMS11 at 2020-02-19 17:20:00
-- 
-- =============================================================================

MAPUNITS
'METRES  ' /

MAPAXES
456514.878 5939175.447
456514.878 5927115.548
467217.965 5927115.548 /

GRIDUNIT
'METRES  ' '        ' /

SPECGRID
  40  64  14   1  F  /

GDORIENT
INC INC INC DOWN RIGHT /

COORD
        0.000      8808.135    1734.297         0.187      8807.745    1768.067
      140.032      8889.170    1734.978       140.891      8888.806    1766.172
      279.985      8970.195    1736.832       281.719      8969.836    1766.796
      419.916      9051.195    1740.372       423.097      9050.833    1772.589
      559.839      9132.183    1743.887       564.658      9131.889    1775.784
      699.377      9213.176    1745.014       706.134      9212.985    1775.715
      838.794      9294.150    1746.341       848.087      9294.095    1777.776
      978.270      9375.106    1747.567       989.951      9375.241    1779.145
     1117.293      9456.031    1745.886      1131.020      9456.402    1775.314
     1255.556      9536.895    1742.276      1273.094      9537.628    1774.515
     1393.873      9617.702    1739.352      1416.236      9618.977    1776.669
     1531.869      9698.425    1738.483      1557.500      9700.298    1776.755
     1669.830      9779.059    1739.604      1698.765      9781.687    1777.132
     1807.687      9859.573    1739.207      1838.441      9862.990    1774.626
     1945.724      9939.965    1738.342      1976.822      9944.171    1771.198
     2083.914     10020.194    1738.472      2117.087     10025.646    1771.448
     2222.873     10100.343    1740.382      2259.852     10107.719    1776.116
     2362.917     10180.535    1744.693      2403.497     10190.310    1783.498
     2503.333     10260.690    1750.599      2545.873     10272.945    1790.972
     2644.576     10341.010    1757.887      2686.888     10355.413    1797.635
     2785.393     10421.135    1763.782      2829.396     10438.594    1804.811
     2924.503     10500.433    1765.914      2971.232     10521.705    1807.752
     3063.550     10579.471    1765.831      3112.912     10604.848    1809.121
     3204.634     10659.464    1765.932      3251.001     10686.009    1806.858
     3344.969     10739.037    1764.452      3385.998     10764.894    1801.740
     3483.745     10817.522    1762.131      3520.362     10842.692    1797.277
     3622.390     10895.760    1761.926      3656.328     10920.984    1797.080
     3761.939     10974.633    1766.017      3796.571     11002.189    1805.248
     3902.884     11054.775    1774.828      3936.747     11083.301    1816.791
     4044.047     11135.390    1788.129      4079.974     11167.037    1835.638
     4187.276     11218.179    1813.623      4229.758     11256.834    1866.143
     4333.409     11304.021    1840.482      4379.761     11347.066    1894.200
     4469.749     11380.984    1851.389      4518.659     11426.882    1908.546
     4613.408     11464.921    1871.605      4660.725     11509.491    1928.265
     4761.129     11552.762    1899.002      4803.382     11592.602    1949.719
     4904.214     11636.263    1916.871      4943.487     11673.332    1963.258
     5042.919     11715.642    1922.436      5080.311     11751.016    1967.075
     5181.668     11795.055    1923.164      5214.282     11826.019    1965.920
     5321.954     11875.920    1924.593      5350.393     11903.049    1966.833
     5463.086     11957.589    1928.837      5487.897     11981.398    1969.815
     5603.772     12038.826    1928.598      5625.566     12059.899    1969.684
       79.454      8670.490    1734.320        79.673      8670.106    1768.065
      219.527      8751.524    1735.006       220.406      8751.165    1766.197
      359.543      8832.545    1736.873       361.307      8832.191    1766.842
      499.575      8913.542    1740.428       502.801      8913.192    1772.609
      639.640      8994.532    1743.924       644.476      8994.254    1775.797
      779.311      9075.532    1745.059       786.029      9075.361    1775.734
      918.839      9156.516    1746.390       928.191      9156.479    1777.804
     1058.367      9237.481    1747.591      1070.219      9237.636    1779.134
     1197.508      9318.423    1745.910      1211.061      9318.796    1775.314
     1336.003      9399.309    1742.313      1353.103      9400.020    1774.519
     1474.385      9480.143    1739.416      1496.246      9481.364    1776.670
     1612.664      9560.913    1738.569      1637.473      9562.676    1776.746
     1751.106      9641.629    1739.637      1778.844      9644.064    1777.139
     1889.428      9722.251    1739.262      1918.832      9725.397    1774.598
     2028.065      9802.803    1738.438      2057.879      9806.677    1771.180
     2167.274      9883.308    1738.610      2199.120      9888.340    1771.485
     2307.405      9963.849    1740.629      2342.885      9970.666    1776.234
     2448.224     10044.454    1745.000      2487.128     10053.507    1783.681
     2588.826     10124.954    1751.013      2629.805     10136.401    1791.150
     2730.086     10205.606    1758.289      2771.423     10219.296    1797.860
     2871.368     10286.264    1764.062      2914.870     10303.111    1805.035
     3011.148     10366.258    1766.047      3056.333     10386.402    1807.888
     3150.775     10446.022    1765.991      3197.125     10469.430    1809.209
     3291.976     10526.521    1766.014      3334.628     10550.576    1806.820
     3432.649     10606.747    1764.396      3470.373     10630.227    1801.653
     3572.169     10686.206    1762.115      3605.958     10709.200    1797.314
     3710.375     10764.618    1762.111      3742.140     10788.040    1797.481
     3848.552     10842.848    1766.455      3881.103     10868.586    1805.875
     3987.471     10921.620    1775.258      4019.046     10948.090    1817.240
     4127.081     11001.061    1788.711      4160.160     11030.097    1835.949
     4270.758     11084.354    1814.553      4307.339     11117.541    1865.684
     4414.378     11167.936    1840.680      4454.332     11204.924    1893.307
     4549.646     11243.926    1851.431      4593.109     11284.561    1907.934
     4692.587     11327.184    1871.547      4735.474     11367.390    1927.560
     4839.480     11414.215    1898.775      4878.621     11450.896    1948.901
     4982.196     11497.352    1916.711      5020.372     11533.122    1962.997
     5121.408     11577.215    1922.419      5158.304     11611.831    1967.112
     5261.081     11657.510    1923.180      5293.217     11687.742    1966.074
     5402.077     11739.051    1924.638      5430.050     11765.472    1967.025
     5543.425     11820.927    1928.860      5568.095     11844.351    1969.970
     5683.734     11901.810    1928.619      5705.795     11922.905    1969.833
      158.905      8532.876    1733.076       159.180      8532.398    1768.823
      298.942      8613.916    1733.215       299.944      8613.504    1764.651
      438.859      8694.941    1734.094       440.825      8694.559    1763.596
      578.827      8775.929    1737.335       582.622      8775.542    1770.933
      719.083      8856.897    1742.104       724.281      8856.630    1772.832
      858.530      8937.899    1742.675       865.686      8937.751    1772.209
      997.900      9018.876    1744.109      1007.359      9018.873    1772.762
     1137.779      9099.843    1746.547      1151.341      9100.048    1778.972
     1276.598      9180.777    1744.717      1290.494      9181.168    1772.398
     1415.066      9261.665    1741.521      1432.462      9262.371    1771.824
     1552.325      9342.447    1737.261      1576.070      9343.708    1774.643
     1690.321      9423.199    1736.060      1717.460      9425.002    1775.108
     1830.342      9504.044    1738.756      1858.587      9506.337    1775.188
     1967.808      9584.620    1737.125      1997.139      9587.499    1771.163
     2106.392      9665.189    1736.112      2134.925      9668.580    1766.516
     2245.398      9745.686    1735.511      2277.648      9750.347    1767.786
     2385.224      9826.172    1736.684      2421.382      9832.557    1771.397
     2526.723      9906.890    1741.336      2566.414      9915.439    1778.373
     2666.525      9987.176    1745.970      2710.775      9998.706    1786.311
     2808.546     10067.996    1752.834      2850.297     10080.996    1790.066
     2951.585     10149.253    1758.885      2996.038     10165.567    1798.124
     3090.593     10228.990    1759.557      3134.081     10247.508    1798.461
     3229.322     10308.322    1758.658      3277.937     10331.962    1803.687
     3372.172     10389.625    1760.681      3413.874     10412.448    1800.905
     3511.666     10469.135    1758.439      3549.566     10492.191    1795.824
     3651.306     10548.620    1756.514      3684.992     10571.159    1791.049
     3787.880     10625.812    1755.227      3817.718     10647.545    1787.779
     3925.275     10703.318    1759.485      3959.128     10729.854    1799.903
     4066.558     10783.928    1772.870      4095.148     10807.753    1810.822
     4201.058     10858.893    1781.267      4234.668     10888.286    1829.419
     4348.139     10945.111    1812.116      4383.270     10976.889    1862.965
     4497.307     11033.784    1847.696      4533.425     11067.096    1897.448
     4625.533     11103.286    1850.373      4666.842     11141.696    1905.498
     4767.798     11185.912    1870.213      4810.123     11225.275    1925.399
     4921.354     11279.078    1905.124      4961.329     11316.136    1954.299
     5064.078     11362.183    1921.971      5101.287     11396.575    1964.359
     5198.603     11437.731    1922.130      5235.755     11472.022    1964.334
     5336.912     11516.783    1920.688      5369.918     11547.260    1961.991
     5477.359     11597.809    1920.444      5505.779     11624.103    1960.572
     5619.617     11680.506    1925.215      5645.132     11704.197    1964.177
     5760.121     11761.566    1924.957      5783.095     11783.018    1963.991
      238.369      8395.240    1732.790       238.691      8394.679    1769.006
      378.330      8476.320    1730.474       379.456      8475.848    1761.747
      518.194      8557.336    1731.769       520.600      8556.869    1763.557
      658.223      8638.302    1735.719       662.415      8637.889    1768.412
      798.065      8719.286    1738.079       804.261      8718.991    1770.444
      936.978      8800.281    1737.953       944.494      8800.149    1765.525
     1075.873      8881.238    1739.489      1085.925      8881.255    1766.747
     1215.517      8962.182    1742.363      1227.827      8962.378    1768.803
     1355.899      9043.142    1744.580      1371.079      9043.564    1771.857
     1495.186      9124.066    1743.348      1514.767      9124.825    1774.012
     1634.555      9204.979    1742.320      1658.418      9206.164    1776.234
     1772.615      9285.790    1740.762      1800.488      9287.496    1777.346
     1908.979      9366.419    1738.061      1936.173      9368.432    1770.681
     2047.445      9447.116    1737.316      2077.382      9449.774    1770.326
     2187.033      9527.843    1737.051      2216.014      9530.946    1766.706
     2326.417      9608.467    1736.281      2355.333      9612.239    1763.901
     2466.803      9689.139    1737.430      2502.138      9694.794    1768.956
     2607.265      9769.752    1740.597      2652.729      9778.697    1778.665
     2749.611      9850.749    1746.128      2793.692      9861.333    1781.673
     2889.302      9931.077    1749.183      2932.340      9943.544    1783.331
     3027.621     10010.751    1749.663      3068.486     10024.841    1782.549
     3165.938     10090.049    1748.917      3211.047     10108.288    1786.932
     3310.809     10172.010    1753.479      3362.763     10196.273    1799.895
     3454.192     10253.640    1756.933      3497.420     10276.624    1797.486
     3593.099     10332.920    1755.605      3635.429     10358.199    1795.713
     3733.526     10412.997    1756.073      3770.991     10437.813    1792.364
     3869.233     10489.697    1755.238      3904.243     10515.094    1791.155
     4006.449     10567.132    1760.394      4041.369     10594.522    1800.217
     4145.147     10645.641    1772.053      4174.990     10670.638    1810.486
     4289.208     10728.976    1796.110      4322.139     10757.966    1842.271
     4435.963     10815.256    1828.417      4468.447     10844.779    1875.052
     4573.058     10892.978    1847.774      4604.476     10922.001    1891.437
     4706.088     10966.961    1858.077      4740.841     10999.210    1904.353
     4857.240     11057.832    1889.659      4891.690     11089.700    1933.191
     5006.937     11147.309    1917.315      5042.690     11180.183    1958.085
     5137.371     11219.107    1918.727      5174.597     11253.132    1957.645
     5273.685     11296.374    1920.659      5311.282     11330.582    1959.996
     5416.518     11379.585    1924.092      5446.283     11406.595    1958.475
     5556.656     11460.349    1923.260      5582.903     11484.149    1957.423
     5697.650     11541.881    1925.600      5723.706     11565.541    1961.880
     5838.382     11623.162    1925.438      5861.794     11644.498    1961.670
      317.850      8257.577    1733.196       318.171      8257.016    1764.917
      457.965      8338.617    1733.770       459.174      8338.106    1763.419
      597.992      8419.640    1734.730       600.574      8419.141    1764.807
      737.245      8500.712    1731.479       741.809      8500.273    1762.805
      876.374      8581.704    1731.836       883.624      8581.377    1765.050
     1015.781      8662.656    1735.420      1024.064      8662.525    1762.300
     1154.991      8743.601    1738.614      1166.421      8743.636    1766.456
     1292.445      8824.508    1737.586      1306.202      8824.731    1764.306
     1432.687      8905.442    1740.687      1453.636      8906.005    1774.549
     1572.536      8986.369    1741.291      1595.957      8987.222    1773.923
     1714.196      9067.373    1743.567      1739.500      9068.532    1775.434
     1854.520      9148.329    1744.605      1882.061      9149.861    1776.792
     1992.625      9229.139    1743.532      2020.647      9231.002    1773.989
     2127.940      9309.671    1739.136      2159.248      9312.151    1771.076
     2266.305      9390.330    1737.362      2298.326      9393.376    1767.943
     2406.566      9471.096    1736.974      2437.875      9474.718    1764.637
     2546.517      9551.760    1736.838      2581.942      9556.807    1765.247
     2687.610      9632.532    1739.284      2731.281      9640.236    1771.244
     2827.386      9712.997    1741.344      2881.006      9724.659    1778.572
     2963.357      9792.308    1740.189      3013.939      9805.733    1775.027
     3100.331      9871.337    1738.111      3146.837      9886.215    1771.567
     3239.798      9950.726    1737.109      3282.699      9967.042    1770.444
     3383.102     10031.497    1739.831      3431.911     10053.266    1780.724
     3530.877     10114.793    1747.567      3579.126     10139.677    1789.797
     3672.405     10195.365    1750.304      3722.430     10224.778    1794.406
     3811.895     10274.732    1752.101      3859.238     10305.989    1794.643
     3949.747     10352.838    1755.053      3991.576     10383.360    1794.578
     4088.229     10431.234    1762.985      4126.001     10461.290    1803.086
     4225.005     10508.120    1774.460      4253.906     10532.876    1809.360
     4377.459     10599.148    1811.549      4418.310     10636.024    1865.050
     4522.625     10684.434    1843.445      4558.634     10717.773    1893.513
     4649.267     10752.508    1849.615      4685.430     10786.282    1899.264
     4790.702     10834.364    1872.900      4824.958     10866.245    1917.292
     4946.954     10929.929    1909.907      4979.302     10959.777    1948.337
     5086.840     11010.286    1923.224      5122.849     11043.200    1960.892
     5211.400     11076.804    1917.891      5247.935     11109.898    1952.796
     5347.411     11153.878    1918.898      5384.990     11187.654    1955.185
     5492.949     11239.525    1924.255      5526.369     11269.377    1960.231
     5632.811     11320.077    1922.446      5662.882     11346.832    1958.991
     5775.809     11403.407    1926.484      5804.340     11428.753    1963.200
     5916.729     11484.872    1926.225      5942.429     11507.732    1963.019
      397.285      8119.991    1728.859       397.611      8119.422    1757.276
      537.497      8200.955    1733.291       538.824      8200.396    1762.237
      677.583      8281.981    1734.151       680.118      8281.499    1760.513
      817.150      8363.035    1732.998       821.564      8362.622    1760.060
      955.583      8444.079    1730.281       963.013      8443.760    1760.615
     1094.790      8525.026    1733.776      1104.989      8524.883    1763.426
     1233.404      8605.965    1736.141      1246.599      8606.015    1765.421
     1371.526      8686.873    1737.324      1389.761      8687.167    1769.888
     1509.547      8767.753    1737.535      1535.511      8768.418    1775.808
     1648.072      8848.622    1737.326      1676.912      8849.598    1773.263
     1789.811      8929.600    1740.057      1821.575      8930.926    1775.341
     1933.248      9010.683    1744.346      1967.237      9012.383    1779.360
     2073.642      9091.639    1745.424      2104.729      9093.476    1775.508
     2210.970      9172.380    1743.030      2246.675      9174.872    1775.655
     2350.030      9253.186    1741.368      2385.948      9256.173    1772.198
     2488.438      9333.872    1738.483      2522.605      9337.311    1765.406
     2625.123      9414.233    1734.515      2669.916      9419.790    1765.987
     2766.579      9495.062    1735.639      2824.492      9504.013    1772.124
     2899.768      9574.296    1732.562      2962.032      9586.271    1769.346
     3032.732      9652.709    1728.692      3092.643      9666.994    1764.271
     3176.635      9733.339    1729.552      3227.802      9748.297    1762.175
     3315.603      9812.387    1727.269      3361.952      9828.774    1759.924
     3455.830      9891.495    1727.132      3509.682      9914.238    1768.506
     3602.742      9973.624    1734.229      3656.351     10000.323    1777.120
     3747.638     10055.418    1741.066      3805.757     10089.090    1787.906
     3891.858     10137.445    1748.614      3945.786     10173.179    1792.989
     4030.419     10215.956    1754.070      4078.994     10252.086    1795.919
     4173.424     10297.965    1767.987      4218.406     10334.965    1811.976
     4312.095     10376.708    1784.276      4353.260     10413.524    1830.999
     4449.646     10454.575    1805.573      4509.525     10511.278    1878.548
     4598.233     10543.445    1841.528      4639.302     10583.120    1896.681
     4730.533     10616.646    1856.915      4768.084     10652.787    1907.328
     4882.691     10708.759    1895.312      4917.610     10741.701    1938.790
     5030.646     10796.509    1920.854      5066.934     10830.066    1961.019
     5156.291     10863.765    1918.287      5196.746     10900.607    1957.268
     5284.758     10933.960    1916.836      5330.376     10974.984    1957.137
     5427.107     11016.780    1922.893      5472.421     11057.083    1964.078
     5570.509     11100.512    1925.638      5606.416     11132.138    1962.591
     5711.286     11181.916    1924.426      5743.327     11209.919    1961.783
     5854.971     11265.836    1928.543      5884.844     11291.815    1964.923
     5996.090     11347.492    1928.296      6023.024     11370.880    1964.791
      476.666      7982.501    1720.464       476.969      7981.971    1744.309
      616.815      8063.381    1728.126       618.078      8062.856    1753.081
      756.780      8144.397    1729.375       759.468      8143.898    1754.977
      896.412      8225.419    1730.078       900.602      8225.041    1753.688
     1035.037      8306.443    1729.434      1043.090      8306.115    1759.586
     1174.139      8387.394    1732.886      1186.945      8387.232    1766.946
     1312.419      8468.331    1734.840      1328.813      8468.403    1768.661
     1450.471      8549.240    1736.376      1471.830      8549.576    1772.171
     1588.483      8630.126    1737.164      1615.772      8630.785    1774.567
     1726.816      8710.999    1737.148      1758.748      8711.993    1773.257
     1864.727      8791.833    1736.052      1901.173      8793.206    1772.204
     2007.988      8872.868    1740.041      2047.044      8874.604    1775.826
     2152.637      8954.011    1744.699      2190.744      8955.990    1777.492
     2295.975      9035.140    1746.760      2336.615      9037.607    1779.400
     2437.281      9116.190    1745.503      2476.406      9118.989    1774.696
     2576.989      9197.146    1741.778      2617.268      9200.600    1769.276
     2708.899      9277.282    1733.068      2753.917      9282.036    1760.608
     2847.668      9357.901    1731.008      2903.405      9365.284    1761.129
     2978.869      9437.097    1726.626      3043.443      9447.810    1758.978
     3108.658      9515.079    1720.988      3181.726      9530.391    1758.819
     3254.095      9595.842    1721.915      3318.303      9612.709    1758.179
     3391.669      9674.365    1718.475      3450.701      9693.502    1755.625
     3531.439      9753.017    1717.599      3587.516      9775.187    1756.538
     3671.913      9831.493    1720.091      3738.126      9863.081    1768.209
     3822.254      9915.193    1731.481      3887.156      9952.146    1779.219
     3967.306      9997.092    1740.202      4023.884     10034.894    1782.851
     4104.326     10073.766    1745.761      4161.963     10118.044    1791.264
     4247.405     10155.173    1759.829      4307.489     10207.323    1814.368
     4397.944     10244.645    1788.666      4440.708     10285.547    1835.645
     4523.805     10311.025    1797.921      4598.401     10386.874    1888.488
     4684.544     10413.232    1850.294      4724.503     10454.576    1902.013
     4825.172     10494.448    1877.458      4866.445     10536.300    1931.254
     4976.866     10585.922    1914.967      5014.925     10622.858    1960.643
     5107.406     10656.785    1920.825      5146.727     10693.487    1961.910
     5230.060     10721.221    1916.504      5275.913     10762.930    1957.825
     5362.371     10794.989    1918.546      5412.748     10839.998    1960.586
     5504.944     10878.030    1924.310      5554.467     10921.646    1967.838
     5646.329     10960.019    1924.789      5682.566     10991.517    1961.427
     5788.688     11042.841    1924.729      5821.367     11070.923    1962.292
     5934.706     11128.745    1931.164      5965.020     11154.571    1966.808
     6076.006     11210.573    1930.828      6103.321     11233.734    1966.630
      556.117      7844.886    1718.256       556.405      7844.384    1739.506
      696.042      7925.841    1721.856       697.121      7925.404    1741.901
      835.745      8006.852    1722.988       838.549      8006.347    1748.235
      975.134      8087.847    1724.413       980.833      8087.354    1754.680
     1114.308      8168.814    1727.636      1124.305      8168.430    1762.567
     1254.749      8249.747    1734.726      1268.565      8249.590    1768.898
     1392.684      8330.704    1735.523      1410.841      8330.790    1770.905
     1530.002      8411.618    1735.704      1552.949      8411.965    1772.228
     1667.310      8492.501    1735.696      1696.601      8493.157    1773.236
     1804.833      8573.364    1735.174      1840.082      8574.356    1772.020
     1940.467      8654.136    1732.510      1982.350      8655.536    1770.594
     2082.439      8735.098    1735.495      2125.180      8736.759    1771.242
     2225.418      8816.115    1738.457      2270.965      8818.157    1773.985
     2372.754      8897.379    1742.352      2413.771      8899.505    1771.530
     2520.266      8978.766    1743.219      2560.615      8981.197    1769.290
     2667.009      9060.264    1741.455      2708.507      9063.225    1766.030
     2795.243      9140.403    1729.265      2847.217      9144.936    1757.345
     2929.196      9220.722    1723.647      2996.889      9228.207    1755.567
     3056.011      9299.629    1717.463      3142.075      9311.752    1755.283
     3190.838      9378.770    1714.620      3271.600      9393.404    1752.752
     3334.485      9459.165    1715.536      3411.999      9477.147    1754.882
     3470.826      9537.508    1712.344      3545.019      9559.199    1753.811
     3607.039      9614.864    1709.516      3681.643      9642.035    1755.921
     3745.598      9692.051    1711.103      3819.589      9725.355    1759.785
     3890.966      9771.928    1718.566      3962.518      9811.543    1767.010
     4035.657      9851.932    1726.255      4094.814      9891.689    1768.173
     4171.474      9925.694    1731.146      4237.872      9978.770    1780.697
     4318.241     10008.510    1746.619      4383.208     10069.003    1803.360
     4459.423     10087.868    1762.434      4509.921     10140.714    1818.212
     4590.861     10157.811    1775.567      4686.389     10265.594    1898.243
     4714.007     10219.895    1781.818      4824.531     10346.069    1922.875
     4924.837     10380.243    1898.821      4968.292     10427.688    1955.093
     5063.542     10456.986    1920.441      5100.844     10494.811    1964.887
     5184.767     10517.713    1917.647      5227.361     10558.209    1960.946
     5309.329     10583.688    1916.785      5354.036     10624.434    1955.421
     5444.644     10660.183    1921.873      5493.108     10703.188    1961.089
     5584.917     10741.186    1926.287      5628.639     10779.268    1964.436
     5726.535     10823.378    1927.665      5761.164     10853.050    1962.656
     5871.372     10908.289    1930.660      5902.843     10934.857    1966.845
     6016.733     10993.552    1936.137      6047.280     11019.034    1971.331
     6158.227     11075.535    1935.836      6185.594     11098.184    1971.184
      635.599      7707.221    1718.378       635.923      7706.653    1742.171
      775.363      7788.256    1718.109       776.667      7787.746    1741.724
      914.902      7869.263    1719.140       918.163      7868.702    1747.651
     1053.958      7950.261    1720.102      1060.379      7949.734    1752.656
     1193.088      8031.202    1724.210      1204.480      8030.794    1761.507
     1331.933      8112.139    1727.989      1346.997      8111.986    1762.894
     1470.915      8193.072    1731.775      1490.865      8193.168    1768.491
     1610.604      8274.016    1735.860      1635.806      8274.371    1773.798
     1750.645      8354.975    1738.663      1782.984      8355.629    1777.508
     1883.489      8435.761    1732.831      1922.404      8436.723    1771.247
     2019.570      8516.580    1731.064      2068.119      8517.972    1772.882
     2157.702      8597.424    1731.110      2205.250      8598.985    1768.621
     2300.747      8678.419    1733.825      2350.116      8680.270    1769.738
     2447.142      8759.570    1735.428      2493.568      8761.564    1765.391
     2598.777      8841.052    1735.994      2644.179      8843.299    1762.086
     2742.710      8922.277    1729.807      2797.548      8925.443    1758.688
     2882.559      9003.351    1722.177      2948.028      9007.848    1753.995
     3010.786      9083.500    1712.933      3087.524      9090.112    1746.135
     3135.522      9162.508    1705.510      3230.437      9173.582    1747.664
     3276.993      9242.868    1707.362      3371.071      9257.448    1750.423
     3418.353      9323.122    1709.318      3502.543      9340.122    1749.060
     3553.769      9401.691    1707.809      3636.812      9423.232    1749.793
     3690.751      9479.772    1707.471      3763.240      9503.639    1747.844
     3829.509      9557.531    1710.048      3916.627      9593.651    1761.810
     3971.827      9635.843    1715.258      4046.857      9675.457    1762.281
     4109.559      9710.579    1717.489      4174.581      9754.190    1761.288
     4251.333      9787.281    1725.181      4317.015      9841.960    1773.080
     4396.274      9867.513    1736.982      4461.484      9933.122    1794.333
     4535.773      9943.643    1747.333      4583.304      9999.489    1802.733
     4669.690     10012.185    1756.487      4706.266     10062.349    1811.226
     4792.698     10072.808    1763.995      4906.230     10227.688    1923.217
     5006.636     10250.233    1893.569      5050.097     10302.913    1952.438
     5140.574     10318.883    1909.997      5184.055     10365.233    1962.902
     5267.055     10383.403    1914.873      5310.275     10425.357    1958.680
     5395.873     10452.803    1919.396      5439.871     10492.979    1956.773
     5530.510     10528.520    1925.154      5576.022     10568.530    1961.662
     5663.104     10602.836    1924.754      5710.847     10643.812    1966.781
     5810.926     10690.276    1933.597      5848.028     10721.504    1971.174
     5955.304     10774.683    1937.673      5987.253     10801.112    1974.190
     6100.082     10859.348    1941.775      6131.518     10884.971    1977.568