NOECHO

-- =============================================================================
-- 
-- Exported from Reek_base_sim
-- 
-- Exported by user asny from RMS11 at 2020-02-19 16:33:47
-- 
-- =============================================================================

MAPUNITS
'METRES  ' /

MAPAXES
456514.896 5939177.343
456514.896 5927115.548
467217.979 5927115.548 /

GRIDUNIT
'METRES  ' '        ' /

SPECGRID
  40  64  14   1  F  /

GDORIENT
INC INC INC DOWN RIGHT /

COORD
        0.000      8808.105    1739.895         0.153      8807.774    1778.745
      140.030      8889.134    1741.795       140.898      8888.832    1779.758
      279.991      8970.151    1744.516       281.800      8969.875    1783.211
      419.870      9051.154    1746.638       423.002      9050.928    1787.501
      559.703      9132.143    1747.783       564.359      9132.012    1788.287
      699.382      9213.124    1747.601       706.127      9213.117    1789.919
      838.975      9294.093    1746.912       848.096      9294.250    1789.704
      978.020      9375.036    1743.897       989.673      9375.401    1786.619
     1116.091      9455.909    1737.953      1130.785      9456.550    1782.410
     1254.008      9536.724    1733.119      1272.281      9537.740    1781.223
     1392.166      9617.497    1731.868      1414.886      9619.039    1783.887
     1530.353      9698.211    1732.377      1555.611      9700.260    1781.428
     1668.009      9778.806    1732.333      1695.724      9781.458    1777.682
     1805.951      9859.331    1733.160      1836.666      9862.780    1776.178
     1944.524      9939.815    1735.104      1977.122      9944.115    1775.085
     2082.548     10020.083    1735.873      2118.738     10025.708    1776.525
     2220.599     10100.158    1736.507      2259.748     10107.351    1778.752
     2359.423     10180.148    1738.698      2399.795     10188.929    1781.664
     2500.618     10260.505    1744.553      2542.127     10271.173    1788.475
     2642.667     10341.042    1752.827      2686.098     10354.185    1798.051
     2783.657     10421.200    1759.974      2828.812     10437.213    1805.849
     2925.636     10501.677    1765.689      2969.996     10519.950    1808.242
     3067.782     10582.298    1767.968      3108.511     10601.553    1805.257
     3208.076     10662.070    1765.919      3242.701     10680.601    1797.277
     3346.975     10740.969    1761.365      3376.462     10758.587    1788.878
     3484.614     10818.860    1756.669      3511.313     10836.452    1783.446
     3622.385     10896.559    1755.118      3650.935     10917.067    1786.385
     3761.544     10975.136    1758.230      3793.717     11000.038    1797.131
     3902.233     11055.016    1766.056      3935.114     11082.092    1810.006
     4043.761     11135.882    1780.189      4075.252     11163.085    1824.751
     4187.715     11219.230    1806.334      4220.901     11248.923    1850.135
     4333.616     11304.746    1833.095      4371.202     11339.174    1879.051
     4470.788     11382.472    1845.711      4513.038     11421.708    1896.754
     4614.632     11466.495    1867.089      4656.422     11505.584    1918.203
     4762.042     11553.960    1894.547      4800.365     11589.948    1941.152
     4904.239     11636.577    1911.881      4941.400     11671.603    1955.474
     5042.500     11715.488    1918.825      5080.552     11751.515    1964.082
     5182.503     11796.038    1923.346      5217.866     11829.708    1970.045
     5323.525     11877.557    1926.739      5353.425     11906.218    1972.484
     5464.571     11959.102    1930.249      5489.934     11983.608    1974.852
     5605.370     12040.405    1930.043      5627.290     12061.794    1974.754
       79.452      8670.463    1739.939        79.644      8670.126    1778.789
      219.528      8751.491    1741.841       220.430      8751.190    1779.810
      359.538      8832.510    1744.546       361.387      8832.237    1783.242
      499.492      8913.514    1746.681       502.691      8913.295    1787.523
      639.445      8994.506    1747.831       644.154      8994.387    1788.338
      779.270      9075.494    1747.640       785.998      9075.501    1789.940
      918.966      9156.473    1746.954       927.908      9156.639    1789.730
     1058.063      9237.424    1743.923      1069.416      9237.788    1786.633
     1196.179      9318.309    1738.001      1210.469      9318.933    1782.418
     1334.046      9399.133    1733.194      1351.671      9400.103    1781.235
     1472.292      9479.926    1731.940      1493.746      9481.356    1783.883
     1610.699      9560.678    1732.418      1634.296      9562.547    1781.449
     1748.829      9641.344    1732.378      1774.520      9643.738    1777.685
     1887.470      9721.983    1733.248      1915.757      9725.068    1776.184
     2026.802      9802.627    1735.186      2056.948      9806.480    1775.087
     2165.495      9883.090    1735.973      2199.534      9888.214    1776.540
     2304.195      9963.410    1736.685      2341.570      9970.066    1778.780
     2443.743     10043.726    1738.997      2482.616     10051.931    1781.745
     2585.792     10124.507    1744.989      2625.945     10134.538    1788.728
     2727.764     10205.291    1753.220      2770.457     10217.876    1798.296
     2868.708     10285.740    1760.351      2913.919     10301.399    1806.051
     3011.039     10366.674    1765.956      3055.038     10384.431    1808.243
     3153.594     10447.834    1768.048      3193.033     10466.160    1805.104
     3294.443     10528.291    1765.840      3327.357     10545.654    1797.042
     3434.202     10608.132    1761.166      3462.002     10624.551    1788.684
     3572.464     10686.916    1756.538      3597.357     10703.174    1783.533
     3709.931     10764.902    1755.241      3736.511     10783.877    1786.874
     3847.690     10842.849    1758.574      3877.566     10865.878    1797.676
     3986.251     10921.313    1766.443      4016.636     10946.260    1810.246
     4126.328     11001.115    1780.707      4155.159     11025.965    1824.962
     4270.449     11084.714    1807.112      4299.279     11110.447    1849.961
     4414.364     11168.481    1833.260      4446.882     11198.176    1878.258
     4550.629     11245.401    1845.764      4587.957     11279.933    1896.065
     4693.716     11328.713    1867.023      4730.984     11363.397    1917.353
     4840.103     11415.187    1894.255      4874.665     11447.436    1940.170
     4982.012     11497.515    1911.703      5017.204     11530.431    1955.113
     5120.937     11577.057    1918.792      5157.768     11611.631    1963.984
     5261.838     11658.450    1923.358      5295.936     11690.611    1970.024
     5403.529     11740.597    1926.778      5432.306     11767.902    1972.625
     5544.721     11822.277    1930.281      5569.590     11846.048    1975.005
     5685.271     11903.344    1930.074      5707.104     11924.408    1974.897
      158.901      8532.854    1737.201       159.127      8532.459    1776.011
      298.935      8613.880    1738.524       299.929      8613.548    1775.981
      438.954      8694.884    1742.221       441.007      8694.591    1780.631
      578.827      8775.888    1743.468       582.482      8775.655    1784.866
      718.663      8856.876    1743.881       723.731      8856.769    1782.915
      858.624      8937.858    1744.843       865.979      8937.888    1786.644
      998.165      9018.833    1743.755      1007.297      9019.020    1783.419
     1137.256      9099.782    1741.675      1148.719      9100.157    1781.050
     1274.814      9180.644    1735.615      1290.237      9181.311    1779.773
     1412.517      9261.460    1731.896      1431.123      9262.453    1778.881
     1550.817      9342.261    1731.382      1574.671      9343.783    1785.425
     1689.702      9423.056    1732.891      1714.962      9424.954    1782.847
     1827.804      9503.741    1732.549      1854.182      9506.054    1777.688
     1966.020      9584.364    1732.350      1994.700      9587.292    1775.075
     2105.847      9665.084    1734.390      2134.940      9668.556    1772.077
     2244.210      9745.541    1734.085      2279.944      9750.559    1775.338
     2382.272      9825.793    1733.584      2422.999      9832.566    1777.405
     2520.475      9905.858    1733.940      2561.495      9913.965    1776.514
     2664.018      9986.916    1740.492      2705.376      9996.625    1782.600
     2805.592     10067.558    1747.516      2850.938     10080.177    1791.833
     2947.415     10148.240    1754.675      2998.312     10164.983    1801.990
     3091.587     10229.827    1761.173      3137.530     10247.563    1802.323
     3235.103     10311.446    1763.729      3275.995     10329.760    1800.275
     3374.454     10391.247    1760.280      3406.654     10407.746    1789.752
     3513.732     10470.833    1755.772      3541.477     10486.870    1782.498
     3651.580     10549.354    1751.658      3675.427     10564.706    1776.867
     3788.077     10626.633    1749.853      3816.023     10646.413    1782.357
     3925.662     10704.364    1753.715      3957.227     10728.598    1794.301
     4065.057     10783.442    1764.599      4097.367     10809.935    1810.450
     4200.822     10859.529    1774.377      4230.492     10885.086    1819.423
     4348.878     10946.526    1806.919      4375.105     10969.896    1846.572
     4497.027     11034.146    1840.500      4526.684     11061.138    1882.744
     4627.290     11105.608    1845.778      4662.798     11138.274    1894.710
     4769.651     11188.239    1866.411      4805.340     11221.175    1914.887
     4922.510     11280.627    1901.401      4956.807     11312.265    1945.662
     5063.745     11362.305    1916.860      5096.938     11392.911    1956.161
     5197.521     11437.111    1917.342      5234.657     11471.388    1960.960
     5337.386     11517.530    1919.531      5373.993     11551.403    1967.428
     5479.239     11599.784    1922.029      5508.245     11626.735    1965.907
     5620.819     11681.788    1925.503      5646.711     11705.986    1969.013
     5761.631     11763.072    1925.267      5784.542     11784.652    1968.842
      238.367      8395.213    1736.424       238.625      8394.764    1775.392
      378.356      8476.267    1735.081       379.460      8475.888    1773.046
      518.366      8557.261    1739.047       520.521      8556.953    1775.406
      658.216      8638.260    1740.315       661.785      8638.040    1776.141
      797.708      8719.252    1738.611       803.070      8719.148    1775.121
      936.942      8800.220    1736.682       944.373      8800.259    1774.087
     1075.978      8881.167    1735.301      1085.556      8881.368    1771.857
     1215.800      8962.123    1737.495      1228.167      8962.523    1775.009
     1354.194      9043.017    1735.779      1369.804      9043.672    1775.675
     1492.689      9123.884    1735.397      1513.829      9124.963    1783.317
     1633.033      9204.829    1739.495      1658.869      9206.390    1792.126
     1771.410      9285.634    1739.473      1798.944      9287.576    1789.305
     1908.124      9366.257    1736.399      1934.290      9368.397    1778.420
     2046.917      9446.979    1736.560      2075.215      9449.660    1776.637
     2184.651      9527.521    1735.066      2216.869      9531.079    1774.449
     2324.917      9608.261    1735.986      2359.749      9612.787    1773.532
     2464.532      9688.851    1736.127      2507.718      9695.505    1778.890
     2602.361      9769.013    1735.458      2652.257      9778.166    1782.265
     2744.074      9849.763    1739.294      2794.580      9860.805    1784.620
     2884.176      9930.076    1743.225      2932.839      9942.754    1785.084
     3026.154     10010.774    1748.746      3078.008     10026.859    1791.791
     3168.242     10091.503    1752.130      3216.362     10109.179    1791.311
     3313.818     10173.773    1755.699      3355.383     10191.671    1789.850
     3459.376     10256.609    1758.165      3493.603     10273.660    1787.370
     3596.292     10335.213    1753.951      3631.842     10355.408    1786.233
     3733.793     10413.709    1752.146      3767.118     10434.990    1785.289
     3870.799     10491.504    1752.688      3910.551     10519.623    1796.076
     4008.447     10569.456    1757.995      4045.646     10598.148    1803.163
     4145.905     10647.096    1768.032      4179.146     10674.599    1812.802
     4289.498     10730.056    1791.516      4322.658     10758.881    1839.584
     4437.140     10817.073    1824.822      4466.499     10843.383    1867.902
     4575.658     10896.132    1845.133      4601.613     10919.799    1881.819
     4709.488     10970.895    1856.278      4737.890     10996.979    1895.182
     4858.830     11059.955    1886.195      4884.864     11083.856    1920.659
     5006.671     11147.636    1912.225      5036.817     11175.212    1948.747
     5139.394     11221.510    1915.750      5172.525     11251.708    1952.542
     5274.387     11297.501    1916.874      5306.708     11326.897    1952.782
     5416.987     11380.420    1921.547      5445.741     11406.560    1957.254
     5556.853     11460.848    1921.061      5582.037     11483.775    1957.062
     5698.583     11542.966    1924.435      5723.709     11565.924    1963.890
     5839.528     11624.358    1924.198      5861.769     11644.804    1963.563
      317.853      8257.541    1736.967       318.105      8257.098    1771.938
      457.994      8338.576    1737.814       459.156      8338.175    1774.572
      597.870      8419.624    1736.742       600.429      8419.259    1775.753
      737.294      8500.652    1734.013       740.863      8500.435    1765.668
      876.383      8581.633    1731.456       881.981      8581.531    1764.670
     1015.458      8662.583    1730.590      1022.904      8662.625    1762.917
     1153.757      8743.503    1728.323      1164.124      8743.717    1762.371
     1292.566      8824.412    1729.208      1306.980      8824.863    1767.023
     1432.328      8905.344    1732.933      1453.650      8906.198    1780.459
     1572.178      8986.276    1736.897      1595.877      8987.418    1783.985
     1713.678      9067.293    1743.462      1740.990      9068.835    1792.181
     1852.709      9148.168    1744.953      1881.572      9150.055    1791.453
     1990.219      9228.902    1743.454      2020.326      9231.171    1787.374
     2128.236      9309.612    1742.073      2160.788      9312.445    1784.245
     2262.767      9389.899    1735.869      2300.594      9393.728    1777.906
     2401.877      9470.507    1734.588      2446.804      9475.854    1778.245
     2537.245      9550.488    1730.017      2587.133      9557.534    1773.860
     2679.758      9631.340    1732.746      2740.550      9641.576    1782.173
     2822.368      9712.235    1736.162      2880.276      9723.888    1780.241
     2959.073      9791.736    1736.012      3017.415      9805.807    1778.621
     3098.483      9871.479    1737.727      3159.302      9889.093    1781.666
     3243.041      9952.638    1741.383      3295.565      9970.860    1779.431
     3389.734     10034.956    1744.634      3435.779     10053.943    1778.790
     3537.087     10118.307    1748.821      3576.591     10137.437    1779.867
     3678.445     10199.277    1751.227      3718.061     10221.474    1784.633
     3817.752     10279.096    1754.325      3856.699     10303.938    1790.159
     3955.723     10357.855    1758.223      4000.617     10389.869    1803.196
     4093.993     10436.603    1766.168      4136.744     10470.113    1813.906
     4229.579     10512.945    1776.316      4265.401     10543.286    1820.598
     4380.598     10602.829    1811.567      4423.501     10641.065    1868.198
     4523.881     10686.389    1840.418      4558.319     10717.812    1888.398
     4652.008     10755.993    1847.963      4685.096     10786.500    1893.765
     4793.224     10837.583    1870.971      4822.185     10864.278    1909.686
     4949.606     10933.095    1908.840      4974.659     10956.058    1940.179
     5087.769     11011.835    1919.908      5115.625     11037.184    1951.264
     5212.941     11078.891    1913.825      5248.111     11110.670    1950.319
     5352.406     11158.976    1918.372      5388.595     11191.489    1956.545
     5497.151     11243.800    1924.562      5527.347     11270.817    1960.571
     5634.844     11322.306    1921.145      5662.801     11347.271    1959.502
     5776.990     11404.782    1924.915      5803.613     11428.574    1964.417
     5918.019     11486.246    1924.647      5941.761     11507.543    1964.201
      397.276      8119.976    1728.372       397.502      8119.580    1757.421
      537.454      8200.943    1734.024       538.575      8200.559    1766.412
      677.326      8281.991    1733.271       679.559      8281.676    1763.879
      816.824      8363.013    1731.748       820.907      8362.770    1763.654
      955.768      8444.002    1729.112       962.128      8443.888    1761.718
     1094.250      8524.949    1726.768      1102.290      8524.994    1756.505
     1232.838      8605.870    1726.539      1244.383      8606.099    1758.954
     1371.074      8686.764    1726.602      1388.688      8687.289    1766.306
     1510.074      8767.666    1729.569      1534.929      8768.604    1777.250
     1648.445      8848.527    1731.966      1677.053      8849.812    1780.801
     1788.998      8929.473    1737.938      1816.936      8930.931    1780.886
     1930.339      9010.465    1744.096      1962.651      9012.403    1789.791
     2070.250      9091.372    1746.521      2106.333      9093.853    1792.820
     2205.845      9171.924    1742.160      2246.208      9175.116    1787.945
     2343.142      9252.510    1738.580      2387.391      9256.569    1781.849
     2480.431      9332.984    1734.335      2530.625      9338.384    1777.279
     2616.507      9413.149    1729.444      2673.709      9420.449    1773.205
     2759.533      9494.104    1730.900      2826.057      9504.241    1776.598
     2895.092      9573.745    1728.311      2963.162      9586.161    1771.177
     3030.307      9652.786    1726.437      3095.696      9667.189    1766.167
     3172.429      9732.926    1728.316      3228.872      9748.029    1763.136
     3321.022      9815.004    1732.677      3373.336      9832.007    1765.850
     3465.918      9896.364    1733.445      3517.954      9916.812    1768.190
     3611.842      9978.640    1736.968      3653.376      9998.169    1767.089
     3751.142     10058.032    1740.270      3802.719     10086.628    1780.496
     3897.301     10141.623    1751.349      3947.707     10173.969    1793.892
     4036.420     10221.157    1758.178      4082.553     10254.706    1800.285
     4175.595     10300.642    1768.433      4218.031     10334.962    1811.915
     4314.519     10379.895    1784.407      4358.943     10419.038    1835.756
     4452.012     10457.942    1804.731      4507.912     10509.994    1872.866
     4598.605     10544.800    1837.607      4634.615     10579.006    1885.996
     4730.630     10617.813    1852.465      4763.982     10649.495    1897.808
     4885.596     10712.406    1895.667      4912.123     10737.218    1930.030
     5033.291     10799.820    1920.663      5062.674     10826.856    1954.957
     5156.978     10865.272    1914.562      5188.941     10894.299    1947.984
     5286.544     10936.393    1912.748      5323.989     10970.024    1949.352
     5427.678     11018.017    1917.421      5467.432     11053.386    1957.836
     5571.142     11101.697    1920.616      5605.921     11132.392    1961.245
     5711.611     11182.717    1919.798      5743.135     11210.375    1962.257
     5855.473     11266.689    1925.832      5884.441     11292.031    1967.055
     5996.594     11348.237    1925.512      6022.600     11371.006    1966.854
      476.699      7982.412    1720.480       476.929      7982.011    1747.533
      616.641      8063.401    1723.294       617.814      8063.007    1753.711
      756.584      8144.385    1727.293       759.084      8144.040    1757.779
      896.001      8225.397    1726.852       900.280      8225.147    1756.326
     1035.631      8306.364    1729.052      1043.127      8306.231    1762.430
     1174.770      8387.326    1729.333      1185.920      8387.382    1764.732
     1312.786      8468.255    1727.192      1325.352      8468.491    1757.557
     1449.274      8549.114    1723.719      1467.289      8549.618    1758.782
     1588.082      8630.011    1726.976      1613.298      8630.895    1768.539
     1727.732      8710.929    1732.033      1754.575      8712.039    1771.223
     1866.188      8791.782    1735.598      1896.581      8793.229    1775.620
     2007.486      8872.760    1742.013      2044.523      8874.772    1787.599
     2149.209      8953.770    1746.457      2193.203      8956.496    1794.899
     2289.037      9034.664    1746.205      2338.383      9038.165    1793.880
     2430.418      9115.673    1744.989      2477.909      9119.562    1785.182
     2566.168      9196.176    1737.642      2620.292      9201.346    1778.260
     2699.331      9276.228    1729.078      2759.234      9283.021    1769.164
     2839.349      9356.871    1726.837      2902.964      9365.527    1763.512
     2972.289      9436.259    1722.148      3047.404      9448.493    1760.691
     3102.544      9514.410    1717.172      3170.375      9527.855    1751.383
     3244.273      9594.125    1717.622      3314.827      9611.365    1754.278
     3394.922      9676.211    1721.225      3456.288      9694.727    1754.944
     3539.047      9756.772    1720.577      3589.221      9775.432    1750.907
     3679.819      9836.022    1721.783      3730.228      9858.949    1755.274
     3824.686      9917.307    1730.552      3881.074      9948.262    1771.129
     3970.654     10000.084    1742.392      4026.009     10036.043    1785.716
     4106.914     10076.760    1747.612      4161.279     10117.596    1793.258
     4253.819     10161.820    1764.742      4301.254     10202.214    1810.059
     4398.946     10246.748    1787.696      4439.368     10284.729    1833.334
     4525.222     10313.898    1795.549      4591.133     10379.673    1875.807
     4684.618     10414.300    1845.643      4717.716     10447.962    1889.251
     4825.010     10495.263    1873.367      4856.786     10527.079    1915.850
     4978.171     10588.135    1914.365      5003.920     10612.946    1946.429
     5110.145     10660.391    1921.085      5142.878     10690.854    1956.980
     5232.974     10724.907    1915.492      5269.275     10757.908    1951.082
     5363.877     10797.282    1914.816      5404.687     10833.766    1952.924
     5505.603     10879.455    1919.148      5545.994     10915.086    1959.337
     5649.316     10963.352    1921.779      5684.782     10994.268    1962.902
     5790.242     11044.798    1920.933      5823.405     11073.414    1965.470
     5934.627     11129.192    1927.732      5965.959     11156.043    1970.974
     6075.874     11210.855    1927.369      6104.133     11235.008    1970.778
      556.141      7844.816    1715.521       556.390      7844.379    1742.865
      695.854      7925.845    1715.158       697.043      7925.457    1742.637
      835.625      8006.805    1719.815       838.621      8006.405    1752.260
      974.943      8087.791    1721.123       980.520      8087.475    1755.289
     1115.391      8168.726    1728.314      1124.495      8168.568    1764.073
     1255.104      8249.702    1730.722      1267.348      8249.755    1764.658
     1393.048      8330.647    1728.478      1407.725      8330.901    1759.358
     1530.496      8411.550    1726.630      1550.284      8412.060    1760.184
     1666.370      8492.376    1725.162      1691.669      8493.186    1761.214
     1806.298      8573.311    1730.581      1835.894      8574.415    1767.804
     1943.810      8654.138    1733.412      1981.879      8655.758    1776.467
     2081.649      8734.944    1735.560      2124.193      8736.996    1780.204
     2223.759      8815.941    1740.117      2272.043      8818.583    1785.412
     2366.684      8897.004    1742.378      2419.891      8900.317    1786.227
     2513.091      8978.356    1743.806      2565.897      8982.124    1782.675
     2652.869      9059.300    1737.808      2709.080      9063.949    1775.279
     2784.367      9139.447    1726.642      2847.472      9145.620    1764.347
     2919.349      9219.662    1720.150      2995.369      9228.680    1757.564
     3045.203      9298.251    1711.725      3133.134      9310.867    1749.644
     3183.967      9377.977    1710.192      3273.905      9393.805    1749.606
     3325.317      9457.746    1710.576      3418.840      9478.316    1752.487
     3474.844      9539.401    1713.313      3547.590      9559.494    1748.339
     3611.033      9617.139    1708.822      3679.960      9641.077    1746.655
     3746.038      9693.141    1707.888      3807.088      9719.683    1745.003
     3889.251      9771.872    1715.458      3949.807      9804.563    1755.870
     4036.825      9853.671    1727.411      4085.308      9885.603    1763.373
     4176.601      9931.014    1735.112      4226.458      9970.142    1774.713
     4323.374     10014.674    1750.270      4372.148     10059.366    1795.044
     4462.513     10092.669    1763.386      4505.883     10137.436    1812.487
     4594.656     10163.786    1775.404      4681.878     10260.857    1886.524
     4719.759     10228.040    1781.383      4816.022     10336.721    1907.887
     4925.195     10381.374    1895.701      4960.407     10419.451    1942.694
     5066.138     10460.583    1921.137      5098.721     10493.433    1960.941
     5186.802     10520.830    1917.383      5228.053     10560.013    1960.943
     5309.632     10585.120    1914.377      5356.766     10628.148    1958.590
     5443.813     10660.509    1917.529      5489.488     10701.142    1958.942
     5586.362     10743.406    1922.931      5624.300     10776.549    1960.244
     5728.377     10825.802    1923.979      5768.885     10860.638    1970.500
     5873.197     10910.566    1927.957      5908.582     10940.574    1975.134
     6016.476     10993.958    1933.129      6049.988     11022.073    1977.990
     6157.842     11075.713    1932.844      6188.055     11100.905    1977.928
      635.594      7707.198    1712.889       635.862      7706.730    1740.512
      775.306      7788.206    1713.747       776.614      7787.796    1740.983
      915.042      7869.172    1717.479       918.180      7868.770    1748.043
     1054.091      7950.172    1717.523      1059.348      7949.886    1746.664
     1193.712      8031.115    1722.598      1204.458      8030.930    1760.572
     1333.166      8112.069    1726.286      1346.106      8112.113    1758.126
     1472.577      8193.026    1728.410      1489.055      8193.282    1758.886
     1612.932      8274.009    1731.100      1633.810      8274.491    1761.925
     1751.481      8354.948    1732.242      1778.676      8355.721    1766.072
     1886.607      8435.764    1731.084      1918.063      8436.791    1765.619
     2021.173      8516.514    1730.596      2060.350      8517.955    1769.331
     2157.366      8597.274    1730.655      2197.905      8598.951    1767.466
     2300.727      8678.313    1735.355      2344.501      8680.356    1770.953
     2444.544      8759.399    1737.194      2499.273      8762.296    1776.522
     2595.562      8840.965    1739.620      2653.938      8844.488    1777.784
     2735.216      8921.943    1731.507      2797.131      8926.225    1768.559
     2874.094      9002.889    1722.590      2940.506      9008.205    1757.954
     3000.757      9082.673    1710.125      3082.793      9090.558    1746.170
     3129.519      9161.929    1701.634      3212.171      9172.009    1736.660
     3272.366      9242.515    1702.707      3356.005      9255.374    1737.293
     3416.782      9323.340    1705.837      3500.741      9339.688    1740.399
     3548.452      9401.058    1702.702      3631.331      9421.633    1739.163
     3687.542      9479.507    1702.087      3757.635      9501.766    1737.147
     3827.381      9557.415    1705.047      3891.747      9583.456    1741.015
     3967.056      9634.118    1710.219      4027.363      9665.464    1747.857
     4111.855      9713.018    1718.818      4161.062      9745.678    1753.610
     4253.592      9790.375    1726.936      4305.136      9832.804    1766.794
     4398.525      9871.269    1738.509      4448.778      9921.292    1784.400
     4537.284      9947.123    1747.218      4578.628      9995.278    1795.820
     4671.402     10016.580    1755.419      4713.465     10073.550    1815.909
     4798.108     10081.646    1764.698      4901.030     10221.103    1908.676
     5007.395     10251.708    1889.638      5045.468     10297.495    1942.007
     5142.347     10321.723    1909.159      5184.338     10366.262    1960.953
     5266.287     10383.905    1912.395      5312.122     10428.405    1960.305
     5392.866     10451.319    1915.679      5441.347     10495.725    1960.196
     5529.307     10528.651    1922.484      5579.701     10573.124    1967.438
     5664.675     10605.249    1922.712      5713.857     10647.626    1970.562
     5811.908     10692.065    1930.743      5856.476     10729.730    1980.669
     5956.203     10776.271    1935.117      5993.537     10807.292    1982.823
     6099.679     10859.742    1939.344      6135.013     10888.694    1984.618