NOECHO

-- =============================================================================
-- 
-- Exported from Reek_base_sim
-- 
-- Exported by user asny from RMS11 at 2020-02-19 16:55:58
-- 
-- =============================================================================

MAPUNITS
'METRES  ' /

MAPAXES
456514.863 5939174.155
456514.863 5927115.548
467218.124 5927115.548 /

GRIDUNIT
'METRES  ' '        ' /

SPECGRID
  40  64  14   1  F  /

GDORIENT
INC INC INC DOWN RIGHT /

COORD
        0.000      8808.167    1735.311         0.209      8807.729    1775.323
      139.965      8889.204    1735.409       140.972      8888.775    1773.732
      279.821      8970.229    1736.435       281.856      8969.809    1773.941
      419.542      9051.235    1739.405       423.161      9050.829    1778.779
      559.072      9132.226    1742.334       564.650      9131.891    1782.161
      698.479      9213.201    1744.795       706.182      9212.986    1781.626
      837.614      9294.160    1746.108       847.970      9294.100    1780.526
      976.851      9375.097    1747.375       989.983      9375.243    1779.905
     1116.245      9456.018    1747.716      1131.412      9456.410    1778.454
     1255.120      9536.900    1745.601      1273.607      9537.637    1778.920
     1392.854      9617.681    1741.338      1416.314      9618.952    1780.292
     1530.640      9698.386    1738.877      1555.914      9700.141    1776.743
     1669.201      9779.066    1738.674      1695.734      9781.356    1773.682
     1807.520      9859.636    1737.739      1835.694      9862.611    1770.935
     1944.548      9939.914    1735.803      1976.061      9943.967    1769.703
     2082.714     10020.130    1736.515      2118.210     10025.692    1772.029
     2221.120     10100.157    1738.159      2259.261     10107.428    1775.276
     2360.571     10180.157    1741.363      2399.616     10189.172    1780.229
     2502.572     10260.656    1748.450      2542.465     10271.711    1789.729
     2645.196     10341.397    1757.948      2685.675     10354.699    1800.217
     2784.188     10420.869    1762.881      2827.554     10437.536    1806.202
     2921.648     10499.406    1763.609      2967.610     10519.736    1804.997
     3060.035     10577.996    1762.902      3105.895     10600.958    1801.545
     3200.255     10657.348    1762.226      3245.390     10682.531    1799.742
     3341.818     10737.511    1762.002      3382.965     10762.754    1797.194
     3482.131     10816.989    1761.388      3519.009     10841.599    1794.861
     3620.624     10895.197    1761.614      3659.925     10923.465    1799.934
     3760.480     10974.359    1765.586      3805.130     11008.652    1813.500
     3902.150     11055.103    1774.182      3945.198     11090.048    1826.095
     4042.162     11134.740    1787.123      4087.205     11172.963    1845.011
     4187.822     11219.531    1813.408      4234.670     11260.631    1871.921
     4333.066     11304.398    1838.265      4379.504     11346.052    1893.229
     4468.908     11381.005    1848.345      4515.951     11423.751    1903.332
     4612.069     11464.356    1867.680      4656.863     11505.320    1920.285
     4759.809     11551.992    1894.955      4801.233     11590.002    1942.031
     4902.645     11635.174    1912.259      4943.821     11673.071    1956.274
     5041.168     11714.393    1918.450      5080.895     11751.096    1961.688
     5180.297     11794.159    1920.702      5214.351     11825.770    1962.348
     5321.233     11875.596    1924.494      5349.974     11902.423    1964.491
     5461.984     11956.856    1929.211      5486.716     11980.097    1967.466
     5602.569     12037.954    1928.958      5624.368     12058.606    1967.327
       79.448      8670.527    1735.332        79.698      8670.087    1775.324
      219.441      8751.566    1735.433       220.487      8751.135    1773.755
      359.326      8832.590    1736.484       361.425      8832.168    1773.989
      499.104      8913.594    1739.454       502.832      8913.188    1778.801
      638.712      8994.585    1742.377       644.459      8994.258    1782.169
      778.187      9075.562    1744.824       786.029      9075.363    1781.636
      917.394      9156.526    1746.153       927.833      9156.485    1780.544
     1056.698      9237.471    1747.414      1069.792      9237.633    1779.911
     1196.225      9318.404    1747.744      1211.079      9318.795    1778.463
     1335.375      9399.309    1745.611      1353.150      9400.013    1778.922
     1473.306      9480.119    1741.395      1495.608      9481.305    1780.293
     1611.226      9560.860    1738.969      1634.961      9562.463    1776.753
     1750.120      9641.602    1738.730      1774.792      9643.661    1773.682
     1889.109      9722.289    1737.772      1915.280      9724.950    1770.937
     2027.188      9802.775    1735.935      2056.489      9806.401    1769.717
     2166.283      9883.250    1736.664      2199.656      9888.282    1772.060
     2305.506      9963.600    1738.368      2341.849      9970.280    1775.337
     2445.505     10043.947    1741.672      2482.979     10052.318    1780.404
     2587.721     10124.761    1748.934      2625.898     10135.035    1790.007
     2729.750     10205.603    1758.282      2769.331     10218.279    1800.439
     2869.054     10285.499    1763.066      2912.361     10301.777    1806.273
     3007.513     10364.808    1763.731      3052.372     10384.285    1804.951
     3146.992     10444.323    1762.986      3190.373     10465.705    1801.509
     3288.027     10524.547    1762.368      3329.659     10547.469    1799.786
     3429.950     10605.370    1762.053      3467.565     10628.190    1797.136
     3570.628     10685.549    1761.434      3604.598     10708.008    1795.057
     3708.709     10763.942    1761.797      3745.448     10790.158    1800.580
     3847.225     10842.498    1766.025      3888.780     10874.211    1814.087
     3987.064     10922.075    1774.616      4026.525     10953.943    1826.447
     4125.899     11000.921    1787.838      4166.157     11034.941    1845.058
     4269.943     11084.412    1814.013      4310.746     11120.073    1871.156
     4413.090     11167.445    1838.322      4454.080     11204.072    1892.513
     4548.681     11243.852    1848.376      4590.923     11282.070    1903.066
     4691.788     11327.147    1867.748      4731.766     11363.521    1919.697
     4838.466     11413.781    1894.793      4875.232     11447.305    1941.031
     4980.481     11496.196    1912.098      5018.978     11531.365    1955.885
     5119.560     11575.932    1918.424      5157.916     11611.075    1961.693
     5259.697     11656.632    1920.719      5292.789     11687.072    1962.500
     5401.599     11738.959    1924.551      5429.353     11764.616    1964.641
     5542.718     11820.565    1929.230      5566.840     11843.000    1967.601
     5682.923     11901.320    1928.973      5704.559     11921.593    1967.456
      158.891      8532.928    1734.102       159.213      8532.366    1775.654
      298.851      8613.963    1734.275       300.042      8613.463    1772.347
      438.559      8695.007    1733.565       440.903      8694.542    1770.165
      578.286      8775.989    1737.049       582.550      8775.547    1776.373
      717.943      8856.960    1740.728       724.414      8856.622    1779.907
      857.346      8937.931    1743.323       866.103      8937.744    1779.699
      996.181      9018.889    1744.088      1007.510      9018.878    1777.682
     1135.573      9099.827    1746.107      1150.237      9100.035    1779.511
     1275.011      9180.756    1746.548      1290.230      9181.166    1775.930
     1414.217      9261.664    1744.727      1433.158      9262.398    1778.010
     1551.271      9342.438    1739.497      1576.023      9343.693    1780.003
     1688.607      9423.147    1736.485      1714.477      9424.787    1775.700
     1828.042      9503.929    1736.941      1854.005      9505.938    1772.557
     1967.382      9584.658    1736.068      1993.124      9587.067    1767.977
     2105.512      9665.181    1733.815      2134.447      9668.461    1766.588
     2244.979      9745.730    1734.330      2278.908      9750.419    1769.476
     2384.212      9826.111    1735.481      2421.334      9832.397    1771.786
     2523.860      9906.404    1738.085      2562.191      9914.349    1775.394
     2665.856      9987.121    1744.529      2705.662      9997.144    1784.324
     2809.465     10068.374    1754.443      2850.232     10080.697    1794.416
     2948.997     10148.406    1758.419      2995.134     10164.919    1800.832
     3086.208     10227.265    1757.447      3132.124     10246.402    1797.777
     3226.585     10307.160    1757.211      3271.765     10328.705    1797.007
     3367.792     10387.442    1756.869      3409.608     10409.873    1795.100
     3509.655     10468.196    1756.919      3547.735     10490.832    1792.930
     3651.059     10548.833    1757.471      3682.067     10569.014    1788.052
     3786.215     10625.218    1755.351      3821.157     10649.855    1791.830
     3923.889     10703.044    1759.600      3966.746     10735.458    1808.707
     4065.664     10784.051    1772.206      4101.796     10813.043    1819.548
     4200.276     10859.337    1781.074      4240.770     10893.389    1839.174
     4348.072     10945.954    1813.841      4388.553     10981.172    1871.890
     4495.944     11033.171    1845.932      4534.363     11067.323    1898.161
     4625.034     11103.806    1848.014      4665.239     11139.943    1901.200
     4767.332     11186.356    1866.537      4805.041     11220.365    1915.789
     4920.866     11279.118    1901.615      4957.750     11312.370    1946.765
     5061.980     11360.697    1917.002      5098.733     11393.812    1957.327
     5197.240     11437.008    1918.973      5234.731     11470.808    1959.468
     5333.983     11514.648    1916.688      5368.188     11545.542    1957.693
     5477.955     11598.814    1921.817      5505.290     11623.578    1959.079
     5619.762     11681.025    1926.658      5643.826     11702.923    1962.204
     5760.151     11761.939    1926.424      5781.844     11781.806    1962.032
      238.343      8395.312    1733.160       238.730      8394.635    1775.063
      378.269      8476.360    1732.920       379.619      8475.775    1770.969
      517.866      8557.413    1731.873       520.444      8556.894    1767.244
      657.751      8638.359    1737.220       661.988      8637.926    1771.292
      797.286      8719.335    1739.818       804.017      8719.000    1775.289
      936.020      8800.313    1740.120       946.159      8800.121    1777.025
     1074.634      8881.256    1741.400      1088.048      8881.266    1776.860
     1214.263      8962.188    1744.650      1230.800      8962.436    1778.877
     1354.369      9043.132    1746.868      1373.040      9043.629    1779.935
     1492.624      9124.012    1744.113      1514.520      9124.825    1779.003
     1632.932      9204.948    1744.387      1656.262      9206.060    1778.815
     1770.295      9285.713    1741.238      1799.508      9287.424    1781.702
     1906.660      9366.333    1737.237      1933.657      9368.241    1771.644
     2044.607      9446.962    1734.462      2073.234      9449.393    1768.021
     2186.155      9527.847    1735.736      2214.336      9530.736    1766.179
     2326.875      9608.629    1736.727      2355.452      9612.202    1764.742
     2467.565      9689.363    1738.295      2501.494      9694.583    1769.034
     2606.318      9769.681    1739.511      2645.532      9777.125    1773.719
     2748.364      9850.547    1745.060      2786.023      9859.317    1777.791
     2888.567      9930.958    1749.856      2930.224      9942.723    1785.258
     3025.210     10010.033    1750.148      3069.078     10024.858    1786.075
     3162.784     10088.903    1748.897      3211.660     10108.353    1788.847
     3310.421     10171.930    1754.575      3362.375     10195.849    1798.786
     3453.805     10253.562    1757.043      3497.406     10276.379    1796.393
     3592.924     10333.041    1755.940      3631.029     10355.338    1791.292
     3734.618     10414.038    1758.261      3769.103     10436.287    1791.001
     3868.957     10490.068    1756.896      3908.997     10518.197    1796.659
     4006.666     10568.075    1762.824      4049.881     10600.766    1810.294
     4146.650     10647.785    1775.695      4180.078     10674.723    1817.826
     4290.580     10731.013    1799.885      4327.750     10762.441    1851.520
     4436.143     10816.089    1830.622      4471.133     10846.621    1879.954
     4572.582     10893.347    1847.564      4606.989     10923.931    1894.303
     4705.696     10967.616    1855.993      4742.618     11000.702    1904.615
     4857.390     11058.610    1886.938      4890.489     11088.284    1928.948
     5008.637     11149.212    1916.637      5041.647     11178.721    1954.218
     5137.535     11219.859    1916.750      5174.348     11252.657    1954.373
     5273.557     11296.910    1919.110      5311.006     11330.196    1957.034
     5415.593     11379.315    1922.389      5444.772     11405.226    1955.175
     5556.458     11460.678    1923.259      5580.463     11482.007    1953.799
     5697.548     11542.233    1926.250      5720.811     11562.952    1958.019
     5838.249     11623.431    1926.079      5859.132     11642.115    1957.791
      317.824      8257.647    1733.975       318.229      8256.939    1772.207
      457.820      8338.695    1734.352       459.312      8338.037    1771.769
      597.471      8419.758    1733.545       600.239      8419.197    1767.129
      736.734      8500.780    1733.444       741.838      8500.262    1769.342
      875.685      8581.757    1734.469       884.294      8581.342    1773.932
     1014.927      8662.692    1738.074      1025.912      8662.500    1773.060
     1153.876      8743.626    1740.814      1168.037      8743.652    1774.127
     1291.624      8824.533    1740.785      1309.698      8824.807    1774.547
     1430.878      8905.440    1742.526      1453.489      8906.022    1778.513
     1570.389      8986.348    1742.871      1595.919      8987.244    1778.937
     1710.968      9067.292    1743.865      1738.219      9068.494    1779.252
     1850.221      9148.169    1743.426      1882.393      9149.890    1782.708
     1990.315      9229.073    1743.921      2023.417      9231.186    1781.679
     2125.521      9309.590    1738.050      2158.517      9312.098    1773.346
     2264.839      9390.310    1736.525      2294.910      9393.058    1766.448
     2405.410      9471.087    1736.531      2435.295      9474.414    1763.425
     2547.411      9552.007    1738.033      2584.556      9557.116    1768.233
     2689.255      9632.934    1740.572      2729.001      9639.728    1770.656
     2827.170      9713.071    1741.524      2877.459      9723.720    1778.222
     2962.238      9792.147    1740.956      3010.845      9804.783    1775.583
     3098.376      9870.849    1739.847      3150.861      9887.392    1777.122
     3236.833      9949.725    1738.276      3293.068      9970.893    1780.042
     3384.273     10032.130    1742.881      3438.504     10056.103    1786.301
     3531.774     10115.386    1749.171      3583.208     10141.614    1793.136
     3674.460     10196.778    1752.716      3722.992     10224.826    1795.308
     3816.539     10278.098    1757.316      3860.663     10306.515    1796.651
     3950.966     10354.285    1758.016      3995.205     10385.546    1798.861
     4088.967     10432.591    1766.176      4130.447     10464.374    1808.870
     4226.181     10510.108    1778.446      4260.886     10538.654    1819.347
     4379.051     10601.170    1815.909      4423.178     10639.385    1872.530
     4521.721     10684.104    1843.797      4558.956     10717.138    1894.162
     4647.311     10751.747    1847.677      4686.890     10787.254    1900.671
     4790.116     10834.762    1871.256      4823.932     10865.124    1914.632
     4947.533     10930.873    1908.569      4977.653     10957.800    1944.368
     5088.227     11011.964    1922.769      5122.564     11042.482    1958.603
     5213.164     11079.153    1918.012      5249.269     11111.048    1952.004
     5349.577     11156.603    1919.816      5384.811     11187.557    1953.171
     5493.083     11240.301    1923.633      5520.367     11264.167    1952.585
     5631.983     11319.961    1921.372      5657.513     11342.236    1952.100
     5775.009     11403.208    1925.780      5799.094     11424.218    1956.614
     5916.056     11484.714    1925.518      5937.675     11503.617    1956.380
      397.267      8120.048    1730.407       397.705      8119.283    1767.634
      537.388      8201.019    1735.072       538.999      8200.304    1771.527
      677.136      8282.087    1734.666       680.265      8281.454    1768.621
      816.533      8363.116    1734.812       822.214      8362.547    1770.153
      954.884      8444.139    1732.925       964.036      8443.710    1769.778
     1093.546      8525.078    1735.069      1105.513      8524.882    1768.680
     1232.577      8606.000    1738.620      1248.268      8606.036    1771.714
     1370.392      8686.904    1739.496      1391.839      8687.227    1775.830
     1508.420      8767.786    1740.055      1538.033      8768.514    1782.365
     1648.358      8848.705    1741.785      1680.459      8849.756    1781.965
     1785.506      8929.511    1739.290      1820.402      8930.921    1779.093
     1927.119      9010.479    1741.929      1966.972      9012.404    1784.440
     2070.378      9091.555    1745.668      2104.243      9093.486    1779.645
     2209.746      9172.415    1744.296      2245.512      9174.821    1778.246
     2347.985      9253.149    1741.169      2384.951      9256.117    1774.093
     2488.400      9334.007    1739.591      2523.067      9337.383    1767.609
     2627.761      9414.704    1737.192      2667.436      9419.484    1765.691
     2767.569      9495.361    1736.667      2817.179      9502.836    1768.767
     2902.641      9575.010    1734.823      2962.561      9586.294    1771.098
     3031.015      9652.490    1729.554      3091.328      9666.647    1765.311
     3173.552      9732.586    1731.289      3234.006      9750.092    1768.208
     3314.306      9812.041    1730.097      3372.946      9832.676    1769.274
     3459.448      9893.127    1732.119      3521.956      9919.432    1778.511
     3606.228      9975.508    1737.930      3662.399     10003.295    1782.408
     3750.328     10057.225    1743.700      3802.962     10087.288    1786.226
     3892.487     10138.254    1749.905      3943.763     10171.424    1791.769
     4031.902     10217.652    1756.884      4080.217     10252.401    1797.825
     4170.991     10296.764    1767.875      4220.233     10335.631    1815.154
     4310.837     10376.513    1785.406      4357.608     10416.513    1837.670
     4449.277     10455.256    1807.462      4511.748     10511.845    1881.959
     4597.866     10543.799    1842.213      4640.241     10582.906    1897.464
     4729.155     10616.398    1855.657      4769.257     10653.400    1908.397
     4882.454     10709.133    1895.000      4914.187     10737.988    1934.262
     5031.652     10797.802    1920.935      5064.047     10826.826    1956.561
     5157.218     10865.367    1918.132      5196.630     10900.287    1955.905
     5286.595     10936.569    1917.547      5330.773     10975.344    1956.157
     5429.374     11019.626    1924.022      5467.636     11052.925    1958.368
     5570.438     11101.194    1924.646      5600.073     11126.786    1954.998
     5708.844     11180.482    1920.999      5737.453     11205.034    1954.463
     5853.408     11265.037    1926.632      5879.312     11287.190    1958.350
     5994.711     11346.772    1926.332      6018.018     11366.696    1958.160
      476.644      7982.564    1721.808       477.037      7981.878    1752.603
      616.663      8063.470    1729.097       618.181      8062.800    1760.514
      756.567      8144.462    1732.428       760.055      8143.766    1766.808
      896.015      8225.483    1733.207       901.755      8224.922    1765.376
     1035.083      8306.475    1734.378      1043.758      8306.083    1765.506
     1173.721      8387.440    1735.744      1186.767      8387.240    1768.537
     1312.801      8468.381    1738.936      1330.736      8468.430    1773.355
     1449.273      8549.283    1737.787      1473.499      8549.637    1775.548
     1586.387      8630.152    1737.776      1616.193      8630.845    1776.707
     1725.010      8711.036    1738.674      1758.823      8712.059    1776.982
     1861.283      8791.817    1736.317      1900.346      8793.249    1776.297
     2002.737      8872.766    1739.128      2042.298      8874.474    1776.649
     2147.434      8953.882    1743.977      2189.699      8956.011    1781.510
     2292.753      9035.090    1747.371      2334.080      9037.523    1781.889
     2434.471      9116.141    1746.004      2475.749      9119.013    1778.321
     2576.535      9197.262    1743.679      2616.042      9200.568    1771.959
     2712.905      9277.870    1737.146      2758.134      9282.552    1765.976
     2849.794      9358.353    1733.038      2901.805      9365.137    1761.815
     2980.619      9437.571    1728.236      3044.544      9448.047    1760.405
     3110.632      9515.685    1723.944      3186.895      9531.521    1762.344
     3250.868      9595.153    1723.551      3320.373      9613.340    1760.571
     3393.439      9675.052    1722.653      3458.363      9696.113    1761.785
     3533.318      9753.860    1720.636      3592.919      9777.458    1761.414
     3672.625      9832.003    1721.177      3734.926      9861.646    1766.473
     3818.805      9913.572    1728.939      3882.981      9949.683    1776.335
     3965.128      9996.186    1739.036      4025.242     10035.390    1783.977
     4104.450     10074.736    1747.177      4165.445     10119.922    1794.797
     4246.108     10155.164    1760.520      4308.717     10207.094    1817.184
     4394.428     10242.208    1786.828      4440.608     10284.249    1837.423
     4521.885     10310.633    1796.955      4597.622     10383.927    1887.203
     4685.231     10414.340    1850.826      4722.129     10450.728    1897.558
     4825.153     10494.882    1877.002      4863.729     10532.343    1926.462
     4978.990     10588.049    1917.205      5011.638     10618.573    1955.898
     5110.111     10659.795    1923.084      5143.176     10689.702    1957.140
     5229.794     10721.999    1915.886      5273.925     10761.085    1955.258
     5364.189     10797.679    1919.625      5411.381     10838.882    1958.625
     5506.831     10880.620    1925.282      5549.380     10917.343    1962.312
     5645.852     10960.460    1923.200      5680.309     10989.874    1958.036
     5788.000     11042.990    1922.702      5819.219     11069.378    1959.120
     5933.500     11128.301    1929.341      5961.606     11151.890    1962.921
     6074.896     11210.121    1928.999      6100.247     11231.323    1962.761
      556.053      7845.024    1716.492       556.445      7844.339    1745.399
      695.850      7925.954    1722.104       697.348      7925.306    1751.056
      835.492      8006.934    1725.443       838.905      8006.269    1756.780
      974.840      8087.912    1727.793       981.426      8087.288    1761.890
     1114.418      8168.852    1731.926      1123.806      8168.446    1762.635
     1254.839      8249.791    1737.605      1268.660      8249.593    1769.328
     1392.694      8330.765    1737.774      1410.961      8330.818    1770.265
     1528.278      8411.670    1735.601      1552.643      8412.009    1771.253
     1663.665      8492.516    1733.995      1694.720      8493.185    1772.044
     1800.905      8573.372    1734.214      1835.912      8574.330    1771.340
     1938.734      8654.221    1734.350      1981.973      8655.628    1775.556
     2077.382      8735.068    1735.073      2123.689      8736.820    1775.558
     2220.667      8816.085    1738.723      2266.205      8818.074    1775.562
     2371.403      8897.496    1745.225      2414.292      8899.666    1777.294
     2521.294      8979.015    1747.441      2565.162      8981.607    1777.588
     2665.978      9060.383    1744.135      2710.979      9063.551    1772.631
     2797.392      9140.794    1733.053      2850.014      9145.351    1763.220
     2930.628      9221.084    1725.601      2998.559      9228.579    1758.238
     3058.493      9300.188    1719.256      3143.432      9312.132    1756.216
     3196.430      9379.984    1718.641      3273.082      9393.857    1753.461
     3332.734      9458.934    1717.096      3414.634      9477.972    1756.386
     3470.275      9537.477    1714.176      3546.806      9559.974    1755.853
     3608.312      9615.430    1711.461      3683.267      9642.883    1757.969
     3746.159      9692.472    1711.492      3819.281      9725.405    1759.739
     3888.277      9770.848    1716.039      3959.332      9809.794    1764.298
     4030.928      9849.577    1723.048      4102.289      9896.372    1773.128
     4170.286      9926.157    1731.267      4246.786      9984.990    1787.819
     4317.493     10009.478    1747.085      4381.363     10066.165    1803.186
     4459.145     10089.457    1763.104      4510.885     10140.893    1820.322
     4591.427     10160.772    1776.139      4685.539     10261.825    1894.304
     4715.640     10224.624    1782.564      4822.610     10341.366    1917.285
     4928.272     10383.362    1901.201      4968.632     10425.618    1952.533
     5066.917     10460.182    1922.967      5102.353     10494.813    1964.124
     5186.799     10520.293    1919.042      5223.705     10554.320    1955.591
     5309.103     10584.593    1916.449      5352.190     10622.868    1953.027
     5445.678     10662.200    1922.444      5492.759     10703.083    1960.096
     5585.715     10742.879    1926.362      5628.314     10779.295    1963.098
     5727.120     10824.755    1927.020      5762.453     10854.539    1962.706
     5871.764     10909.339    1929.509      5903.361     10935.629    1966.578
     6016.391     10993.844    1935.060      6045.885     11018.127    1969.837
     6157.806     11075.666    1934.761      6184.323     11097.356    1969.736
      635.528      7707.369    1716.507       635.983      7706.575    1749.196
      775.105      7788.401    1717.320       776.813      7787.683    1749.000
      914.684      7869.346    1721.555       918.272      7868.673    1753.086
     1054.058      7950.300    1724.750      1060.243      7949.738    1755.109
     1192.579      8031.278    1725.860      1203.371      8030.833    1758.884
     1332.586      8112.194    1731.555      1347.006      8112.001    1762.343
     1471.154      8193.148    1733.840      1491.520      8193.206    1767.904
     1608.797      8274.084    1735.135      1634.408      8274.413    1771.005
     1747.045      8355.019    1736.906      1780.632      8355.667    1776.411
     1879.732      8435.817    1732.132      1915.934      8436.680    1769.256
     2016.047      8516.658    1731.305      2061.457      8517.920    1773.056
     2154.642      8597.530    1732.471      2201.396      8599.022    1771.550
     2298.666      8678.565    1736.551      2351.304      8680.492    1776.673
     2448.643      8759.869    1740.773      2500.451      8762.054    1776.504
     2598.751      8841.291    1739.980      2648.072      8843.709    1770.530
     2744.259      8922.620    1734.084      2798.833      8925.768    1764.984
     2882.713      9003.617    1725.065      2942.804      9007.780    1755.751
     3010.978      9083.754    1714.272      3089.569      9090.610    1748.421
     3136.987      9162.911    1706.579      3228.586      9173.689    1746.734
     3277.454      9243.170    1708.268      3367.464      9257.217    1748.130
     3416.214      9322.900    1709.802      3506.986      9341.376    1750.798
     3548.334      9400.442    1706.888      3636.878      9423.626    1750.651
     3688.040      9479.017    1707.055      3765.674      9504.787    1749.890
     3826.649      9556.552    1707.998      3908.856      9590.670    1756.532
     3967.705      9634.106    1711.263      4042.715      9673.294    1758.368
     4106.182      9709.269    1714.701      4178.786      9756.737    1763.359
     4249.417      9787.294    1724.164      4324.744      9847.463    1778.733
     4395.869      9869.113    1736.974      4464.066      9934.278    1797.175
     4536.009      9946.320    1747.630      4583.815      9999.533    1802.934
     4669.871     10015.397    1756.166      4709.214     10066.772    1812.686
     4793.785     10077.464    1764.010      4905.071     10223.341    1915.252
     5008.945     10252.199    1893.170      5049.153     10299.021    1946.090
     5143.691     10322.055    1911.535      5183.315     10362.792    1957.987
     5267.966     10384.957    1914.668      5311.896     10426.346    1957.457
     5394.865     10452.932    1918.122      5438.357     10491.685    1954.061
     5528.089     10527.510    1922.805      5574.177     10567.208    1959.191
     5665.025     10605.543    1925.688      5710.721     10644.092    1965.278
     5813.669     10693.417    1935.203      5851.604     10724.881    1973.457
     5956.372     10776.269    1937.634      5989.217     10803.095    1975.651
     6100.429     10860.200    1941.538      6131.464     10885.219    1977.638