NOECHO

-- =============================================================================
-- 
-- Exported from Reek_base_sim
-- 
-- Exported by user asny from RMS11 at 2020-02-19 16:31:45
-- 
-- =============================================================================

MAPUNITS
'METRES  ' /

MAPAXES
456514.872 5939175.472
456514.872 5927115.548
467217.794 5927115.548 /

GRIDUNIT
'METRES  ' '        ' /

SPECGRID
  40  64  14   1  F  /

GDORIENT
INC INC INC DOWN RIGHT /

COORD
        0.000      8808.147    1727.745         0.206      8807.719    1770.345
      139.979      8889.182    1728.990       140.946      8888.807    1769.216
      279.869      8970.196    1732.121       281.830      8969.859    1772.076
      419.741      9051.187    1737.120       423.165      9050.908    1777.988
      559.466      9132.172    1740.110       564.430      9132.009    1776.683
      699.122      9213.148    1742.313       705.811      9213.124    1775.670
      838.776      9294.117    1745.229       847.960      9294.261    1779.407
      978.572      9375.083    1748.439       990.616      9375.444    1784.775
     1118.251      9456.037    1748.684      1132.968      9456.657    1784.423
     1257.139      9536.939    1745.025      1275.790      9537.935    1782.909
     1394.458      9617.706    1738.319      1417.151      9619.178    1778.189
     1532.108      9698.423    1734.730      1555.274      9700.206    1768.814
     1670.603      9779.136    1735.043      1693.654      9781.219    1763.179
     1808.731      9859.743    1735.739      1836.446      9862.665    1765.106
     1946.036      9940.137    1736.322      1981.995      9944.574    1770.910
     2084.158     10020.479    1738.050      2124.720     10026.356    1774.655
     2221.583     10100.516    1738.722      2262.187     10107.455    1774.629
     2360.981     10180.680    1741.751      2399.222     10188.401    1776.037
     2503.329     10261.359    1749.279      2542.719     10270.748    1785.781
     2645.480     10342.013    1757.461      2684.667     10353.008    1795.488
     2786.424     10422.296    1763.211      2827.940     10435.949    1804.718
     2925.101     10501.651    1763.875      2967.679     10517.929    1803.607
     3062.533     10580.174    1761.107      3105.567     10599.074    1798.266
     3200.967     10658.802    1758.631      3243.729     10680.070    1794.152
     3343.184     10739.305    1759.309      3381.298     10760.465    1791.696
     3484.300     10819.375    1759.537      3518.567     10840.340    1791.106
     3623.728     10898.452    1760.045      3659.484     10922.290    1796.651
     3763.397     10977.681    1764.413      3804.878     11007.497    1811.254
     3904.314     11057.909    1774.002      3944.878     11089.003    1823.800
     4045.092     11138.229    1788.114      4084.738     11170.250    1839.046
     4191.366     11223.375    1814.265      4228.647     11254.724    1860.745
     4337.071     11308.512    1838.316      4370.993     11337.852    1880.068
     4471.941     11384.408    1845.605      4508.110     11416.258    1892.823
     4613.329     11466.072    1862.161      4650.240     11498.923    1913.353
     4758.261     11550.987    1886.785      4795.685     11584.518    1938.376
     4901.247     11634.216    1904.967      4938.671     11667.937    1953.931
     5042.336     11715.758    1914.988      5077.902     11747.994    1960.768
     5182.093     11796.096    1919.449      5214.399     11825.563    1963.693
     5323.371     11877.822    1924.854      5351.653     11903.800    1967.841
     5464.318     11959.248    1930.151      5488.441     11981.588    1971.425
     5604.730     12040.175    1929.858      5625.848     12059.924    1971.266
       79.445      8670.517    1727.773        79.685      8670.096    1770.353
      219.438      8751.551    1729.024       220.431      8751.178    1769.248
      359.362      8832.562    1732.165       361.360      8832.227    1772.094
      499.303      8913.550    1737.130       502.792      8913.273    1777.947
      639.191      8994.535    1740.149       644.173      8994.380    1776.702
      779.167      9075.517    1742.353       785.732      9075.503    1775.700
      919.030      9156.500    1745.296       928.014      9156.650    1779.455
     1058.894      9237.479    1748.470      1070.842      9237.846    1784.785
     1198.610      9318.448    1748.699      1213.146      9319.062    1784.419
     1337.606      9399.366    1745.019      1355.976      9400.341    1782.895
     1475.052      9480.159    1738.377      1497.280      9481.580    1778.156
     1612.979      9560.919    1734.843      1635.524      9562.620    1768.772
     1751.962      9641.705    1735.116      1774.057      9643.654    1763.184
     1890.732      9722.419    1735.825      1916.766      9725.090    1765.126
     2028.871      9802.982    1736.471      2062.214      9806.976    1770.924
     2167.692      9883.519    1738.157      2205.641      9888.850    1774.661
     2305.921      9963.827    1738.899      2344.635      9970.241    1774.600
     2446.546     10044.407    1742.134      2483.257     10051.602    1776.146
     2589.487     10125.456    1749.759      2627.062     10134.159    1786.073
     2731.105     10206.251    1757.798      2768.729     10216.532    1795.745
     2872.040     10286.838    1763.413      2912.790     10299.927    1804.871
     3010.979     10366.640    1763.886      3051.894     10381.967    1803.488
     3149.212     10445.897    1761.047      3189.722     10463.385    1798.144
     3288.718     10525.479    1758.775      3328.125     10544.804    1794.166
     3431.181     10606.582    1759.396      3465.742     10625.543    1791.633
     3572.418     10687.203    1759.632      3603.454     10706.006    1791.310
     3710.899     10766.139    1760.220      3744.023     10788.042    1797.221
     3849.234     10844.826    1764.894      3887.978     10872.489    1811.798
     3988.591     10924.172    1774.390      4026.209     10952.855    1824.049
     4128.299     11003.828    1788.779      4164.399     11032.866    1839.203
     4273.067     11087.825    1814.769      4306.183     11115.567    1860.415
     4416.761     11171.267    1838.287      4447.024     11197.345    1879.596
     4551.332     11246.921    1845.611      4583.924     11275.504    1892.527
     4692.330     11328.235    1862.092      4725.191     11357.337    1912.628
     4836.074     11412.068    1886.479      4868.549     11440.988    1937.115
     4978.249     11494.545    1904.701      5012.378     11525.081    1953.414
     5119.980     11576.647    1914.898      5153.843     11607.092    1960.718
     5260.807     11657.945    1919.441      5292.297     11686.412    1963.809
     5402.973     11740.466    1924.881      5430.869     11765.845    1967.970
     5544.234     11822.174    1930.172      5568.542     11844.455    1971.546
     5684.455     11902.929    1929.877      5706.047     11922.898    1971.383
      158.880      8532.932    1726.352       159.173      8532.419    1770.470
      298.805      8613.962    1727.185       299.923      8613.534    1767.290
      438.585      8694.972    1728.996       440.901      8694.586    1769.813
      578.621      8775.928    1735.588       582.813      8775.609    1778.958
      718.196      8856.913    1736.243       723.573      8856.762    1771.854
      858.360      8937.881    1739.681       865.128      8937.883    1771.189
      997.973      9018.855    1741.675      1006.848      9019.018    1772.856
     1138.785      9099.859    1747.558      1152.365      9100.285    1785.393
     1278.154      9180.819    1747.197      1293.490      9181.464    1781.847
     1417.253      9261.750    1744.400      1437.453      9262.796    1782.594
     1553.242      9342.464    1736.181      1577.997      9343.990    1776.624
     1689.803      9423.129    1731.353      1713.663      9424.848    1764.802
     1829.742      9503.983    1732.983      1851.920      9505.835    1760.105
     1968.673      9584.718    1733.796      1993.411      9587.106    1761.311
     2107.590      9665.383    1735.027      2141.022      9669.135    1769.434
     2246.492      9745.957    1736.281      2283.792      9750.857    1771.594
     2383.430      9826.106    1735.249      2423.937      9832.386    1771.105
     2522.706      9906.423    1736.399      2561.140      9913.482    1769.887
     2668.894      9988.074    1745.431      2712.811      9997.638    1785.232
     2810.367     10068.848    1752.060      2848.289     10078.636    1787.979
     2953.343     10150.068    1758.769      2999.927     10164.292    1803.075
     3090.519     10229.374    1757.817      3133.132     10244.662    1797.318
     3229.656     10309.041    1756.292      3271.271     10326.384    1793.769
     3367.478     10387.877    1752.757      3406.186     10406.336    1787.763
     3510.902     10469.410    1754.549      3544.178     10487.276    1786.022
     3652.686     10550.361    1755.649      3681.463     10567.504    1785.350
     3787.307     10626.849    1752.855      3817.469     10646.535    1786.342
     3924.409     10704.522    1757.016      3965.937     10733.893    1806.386
     4066.404     10785.671    1770.942      4103.792     10813.992    1819.562
     4202.736     10862.577    1781.999      4240.105     10892.488    1833.958
     4351.311     10949.580    1814.125      4384.638     10977.375    1860.863
     4499.646     11036.969    1845.530      4526.472     11059.970    1883.084
     4627.525     11106.870    1844.455      4659.398     11134.644    1890.984
     4768.746     11188.353    1861.708      4800.257     11216.025    1910.100
     4916.612     11275.774    1892.420      4949.097     11304.396    1942.198
     5057.466     11357.063    1908.254      5091.008     11386.675    1955.110
     5196.625     11436.864    1914.338      5230.455     11466.807    1958.844
     5335.773     11516.651    1915.690      5368.010     11545.279    1959.215
     5479.823     11600.799    1922.608      5507.605     11625.583    1963.039
     5621.415     11682.773    1927.747      5646.430     11705.216    1966.840
     5761.807     11763.668    1927.478      5784.193     11783.907    1966.651
      238.328      8395.323    1726.705       238.688      8394.694    1772.817
      378.226      8476.355    1727.056       379.502      8475.852    1767.767
      517.888      8557.373    1727.386       520.101      8556.998    1761.920
      657.670      8638.330    1731.578       661.134      8638.066    1763.280
      797.334      8719.289    1733.753       802.407      8719.152    1763.767
      936.389      8800.247    1732.994       944.165      8800.257    1765.426
     1075.653      8881.189    1734.966      1085.220      8881.370    1765.276
     1215.418      8962.139    1738.633      1228.977      8962.563    1772.850
     1356.300      9043.135    1743.203      1373.384      9043.839    1778.145
     1495.021      9124.038    1741.241      1516.803      9125.130    1778.253
     1634.770      9204.975    1740.244      1655.831      9206.217    1771.113
     1771.072      9285.665    1735.216      1794.263      9287.249    1765.195
     1907.802      9366.304    1732.663      1930.311      9368.069    1759.012
     2044.908      9446.882    1731.449      2071.408      9449.272    1760.456
     2186.455      9527.809    1735.433      2211.592      9530.434    1760.921
     2326.861      9608.597    1737.419      2356.416      9612.205    1764.444
     2465.951      9689.150    1737.084      2509.960      9695.492    1773.592
     2603.783      9769.363    1735.887      2651.297      9777.488    1773.473
     2748.607      9850.754    1741.544      2791.561      9859.491    1776.227
     2889.376      9931.387    1745.394      2933.225      9942.014    1782.485
     3029.040     10011.614    1748.138      3075.068     10024.912    1788.046
     3165.969     10090.696    1747.479      3209.709     10105.689    1785.266
     3315.480     10174.310    1755.695      3361.830     10192.958    1795.617
     3458.372     10255.906    1757.778      3495.355     10273.107    1790.488
     3595.422     10334.729    1755.258      3626.107     10350.939    1783.700
     3736.165     10415.351    1757.303      3768.814     10434.620    1789.881
     3872.174     10492.997    1757.421      3904.544     10514.035    1791.729
     4006.660     10569.130    1759.922      4047.507     10598.015    1806.240
     4146.710     10648.947    1772.929      4179.980     10674.257    1814.326
     4292.844     10733.794    1798.811      4328.794     10762.726    1847.094
     4441.065     10820.935    1831.441      4469.270     10844.527    1870.541
     4576.610     10897.615    1846.291      4603.714     10920.856    1884.210
     4710.315     10972.576    1854.826      4742.130     11000.222    1900.500
     4859.206     11060.778    1884.236      4887.388     11085.389    1925.473
     5006.285     11147.462    1911.925      5041.664     11178.384    1961.253
     5137.812     11220.577    1913.216      5173.715     11251.941    1959.758
     5273.439     11297.299    1914.134      5309.889     11329.129    1959.658
     5417.572     11381.458    1921.246      5447.597     11407.693    1959.975
     5558.159     11462.525    1922.991      5584.083     11485.219    1958.757
     5700.177     11544.849    1928.123      5723.705     11565.521    1962.382
     5840.682     11625.843    1927.849      5861.806     11644.510    1962.188
      317.805      8257.665    1729.035       318.205      8256.967    1773.546
      457.771      8338.696    1729.667       459.279      8338.091    1772.650
      597.548      8419.712    1730.311       600.346      8419.232    1769.270
      736.912      8500.715    1729.404       741.030      8500.404    1762.995
      876.524      8581.664    1731.844       883.167      8581.490    1766.973
     1015.582      8662.612    1732.033      1023.799      8662.627    1762.652
     1154.324      8743.541    1732.644      1164.816      8743.740    1762.487
     1291.333      8824.400    1730.155      1305.726      8824.843    1763.072
     1431.404      8905.334    1734.814      1450.969      8906.116    1771.168
     1572.495      8986.322    1738.847      1594.615      8987.385    1772.764
     1713.062      9067.296    1740.012      1735.787      9068.567    1770.063
     1852.632      9148.208    1739.774      1876.853      9149.763    1768.656
     1990.576      9228.984    1738.604      2016.073      9230.851    1767.091
     2124.426      9309.364    1733.717      2150.880      9311.577    1762.059
     2263.245      9390.043    1734.840      2289.076      9392.536    1760.332
     2406.959      9471.188    1739.005      2438.558      9474.747    1766.466
     2545.723      9551.758    1736.880      2592.102      9557.924    1772.208
     2684.738      9632.242    1735.013      2732.161      9639.731    1768.333
     2824.696      9712.744    1734.854      2880.414      9723.238    1773.953
     2962.037      9792.507    1734.021      3013.959      9804.226    1772.302
     3102.313      9872.627    1736.038      3159.927      9888.271    1780.684
     3244.346      9953.103    1739.658      3303.872      9972.511    1786.690
     3391.146     10035.445    1745.649      3438.821     10053.934    1784.113
     3537.895     10118.500    1751.799      3577.371     10136.432    1784.934
     3678.197     10199.036    1753.970      3718.270     10219.967    1789.366
     3818.861     10279.814    1758.027      3858.517     10303.188    1795.325
     3948.687     10353.609    1753.766      3989.622     10380.371    1794.358
     4085.666     10431.281    1759.807      4125.850     10460.061    1802.523
     4227.472     10512.387    1776.042      4267.360     10543.361    1822.634
     4383.656     10605.720    1815.628      4423.256     10638.353    1865.360
     4526.220     10688.577    1842.170      4555.129     10713.147    1881.073
     4650.499     10755.604    1843.438      4684.661     10785.160    1890.444
     4794.000     10839.070    1867.865      4823.266     10864.557    1907.979
     4953.149     10936.200    1910.533      4979.835     10959.449    1946.087
     5090.358     11014.207    1921.619      5124.119     11043.558    1963.311
     5215.245     11081.567    1914.394      5249.636     11111.369    1954.573
     5351.856     11159.168    1915.833      5387.202     11189.695    1957.283
     5497.449     11244.543    1923.910      5522.789     11266.370    1955.505
     5637.198     11324.887    1924.208      5658.139     11342.901    1952.302
     5779.408     11407.350    1928.817      5800.301     11425.340    1958.072
     5920.102     11488.509    1928.565      5938.794     11504.660    1957.770
      397.242      8120.077    1725.529       397.631      8119.396    1764.380
      537.319      8201.030    1730.683       538.895      8200.396    1771.254
      677.226      8282.043    1731.695       680.527      8281.479    1773.248
      816.733      8363.056    1731.054       821.935      8362.665    1769.320
      956.048      8444.029    1731.511       964.278      8443.817    1770.755
     1094.646      8524.980    1730.705      1104.791      8525.000    1764.829
     1233.287      8605.902    1731.694      1246.386      8606.147    1765.594
     1372.549      8686.828    1734.664      1391.439      8687.395    1774.518
     1510.732      8767.710    1735.555      1534.738      8768.634    1776.921
     1649.836      8848.612    1737.122      1675.103      8849.768    1772.881
     1786.744      8929.383    1734.584      1813.471      8930.793    1767.150
     1928.692      9010.406    1737.928      1959.416      9012.248    1772.049
     2070.248      9091.421    1741.032      2096.266      9093.186    1768.605
     2207.480      9172.118    1739.923      2235.445      9174.272    1768.728
     2343.899      9252.663    1737.968      2377.263      9255.611    1769.338
     2487.065      9333.768    1739.953      2521.532      9337.312    1767.903
     2623.192      9414.082    1734.266      2661.920      9418.782    1761.028
     2760.743      9494.366    1730.004      2819.416      9502.848    1766.133
     2898.874      9574.511    1727.181      2965.275      9585.973    1767.179
     3033.344      9653.581    1723.300      3091.681      9665.725    1760.412
     3174.184      9733.507    1724.529      3239.459      9750.041    1769.041
     3319.346      9814.508    1729.619      3386.583      9835.236    1777.581
     3465.000      9896.018    1734.153      3520.773      9916.774    1775.871
     3610.334      9977.949    1739.546      3660.919     10000.344    1779.325
     3750.151     10057.697    1742.596      3805.196     10086.177    1788.182
     3892.146     10138.685    1749.064      3944.625     10169.780    1795.053
     4028.781     10216.438    1752.834      4073.537     10246.208    1794.019
     4166.959     10294.886    1761.028      4217.583     10332.166    1811.478
     4312.159     10378.795    1782.151      4360.704     10417.887    1836.315
     4456.089     10462.447    1808.334      4507.489     10506.647    1868.887
     4604.035     10550.173    1841.266      4637.099     10579.327    1884.563
     4734.769     10622.588    1853.211      4767.642     10651.791    1897.514
     4889.276     10715.868    1894.153      4915.351     10738.862    1927.933
     5036.885     10802.830    1919.715      5060.534     10823.485    1948.011
     5163.188     10871.237    1917.004      5196.584     10900.194    1953.439
     5293.143     10942.995    1915.987      5333.108     10977.424    1958.027
     5431.698     11022.269    1918.832      5466.790     11052.308    1957.796
     5572.064     11103.138    1919.937      5601.488     11128.172    1956.194
     5712.298     11183.913    1919.939      5738.809     11206.363    1955.630
     5856.462     11268.010    1926.189      5880.478     11288.300    1959.583
     5997.590     11349.534    1925.854      6019.202     11367.805    1959.393
      476.638      7982.560    1717.590       477.010      7981.909    1751.713
      616.568      8063.482    1723.224       617.959      8062.928    1756.044
      756.438      8144.452    1726.279       759.951      8143.860    1766.753
      896.267      8225.417    1729.443       902.034      8224.992    1768.190
     1036.097      8306.382    1732.879      1045.583      8306.144    1774.198
     1174.525      8387.350    1731.742      1186.307      8387.375    1768.029
     1313.068      8468.279    1732.860      1329.294      8468.578    1771.724
     1450.085      8549.147    1731.643      1469.480      8549.711    1770.139
     1587.836      8630.006    1732.921      1610.410      8630.840    1769.812
     1726.418      8710.879    1734.665      1753.893      8712.071    1771.481
     1861.689      8791.572    1731.062      1899.497      8793.440    1774.529
     2002.912      8872.532    1733.987      2041.708      8874.690    1774.551
     2147.036      8953.676    1739.790      2187.169      8956.181    1779.649
     2288.497      9034.681    1742.719      2326.790      9037.374    1779.367
     2430.176      9115.714    1744.061      2472.257      9119.083    1780.420
     2572.908      9196.868    1742.796      2617.190      9200.969    1775.583
     2708.022      9277.259    1734.346      2756.967      9282.617    1764.870
     2843.571      9357.481    1727.429      2903.199      9365.309    1759.304
     2975.645      9436.859    1720.644      3050.191      9448.545    1758.790
     3105.768      9515.174    1714.154      3183.842      9529.999    1757.229
     3241.472      9593.615    1711.786      3319.018      9611.763    1758.214
     3391.677      9675.328    1718.691      3471.282      9698.329    1769.623
     3535.675      9755.686    1720.815      3597.664      9777.628    1763.630
     3673.873      9833.795    1721.147      3737.195      9860.914    1767.499
     3818.799      9914.772    1728.767      3890.604      9951.443    1784.207
     3965.345      9997.431    1739.437      4023.526     10032.171    1786.980
     4103.713     10075.646    1745.369      4158.550     10113.118    1792.222
     4244.909     10155.805    1756.444      4301.119     10199.057    1809.557
     4395.311     10244.180    1782.912      4438.567     10280.941    1830.572
     4526.639     10316.931    1795.181      4594.153     10378.498    1874.367
     4691.051     10420.515    1848.391      4722.796     10450.258    1889.080
     4832.261     10502.275    1876.106      4861.101     10529.145    1914.162
     4983.851     10592.820    1913.424      5008.907     10615.510    1944.329
     5114.370     10664.172    1918.374      5137.774     10684.812    1943.978
     5236.219     10728.506    1912.541      5268.785     10756.748    1944.516
     5369.949     10803.517    1915.828      5409.324     10837.281    1953.901
     5509.031     10883.236    1918.923      5544.982     10913.776    1957.462
     5646.883     10961.991    1916.272      5679.650     10989.566    1956.979
     5788.066     11043.594    1916.321      5818.600     11069.077    1958.530
     5934.096     11129.215    1924.715      5961.890     11152.276    1963.620
     6075.565     11211.020    1924.293      6100.663     11231.795    1963.400
      556.105      7844.918    1715.538       556.526      7844.183    1751.849
      695.973      7925.870    1719.424       697.418      7925.305    1751.176
      835.560      8006.873    1719.923       838.796      8006.341    1754.399
      975.080      8087.830    1722.807       982.020      8087.334    1765.646
     1114.353      8168.778    1726.047      1124.705      8168.530    1767.541
     1254.376      8249.719    1731.839      1267.579      8249.751    1769.334
     1391.697      8330.635    1730.912      1409.034      8330.949    1769.703
     1528.964      8411.510    1731.510      1549.901      8412.098    1770.989
     1664.154      8492.285    1729.217      1688.664      8493.148    1767.587
     1800.375      8573.057    1728.638      1831.291      8574.319    1768.464
     1938.382      8653.877    1729.064      1984.587      8655.999    1779.973
     2075.199      8734.611    1727.597      2123.480      8737.078    1775.410
     2217.210      8815.591    1731.284      2268.563      8818.504    1778.512
     2365.577      8896.979    1739.384      2420.388      8900.447    1786.601
     2517.899      8978.758    1746.990      2566.756      8982.240    1784.709
     2659.048      9059.861    1741.615      2705.176      9063.627    1772.406
     2790.055      9140.045    1728.964      2849.963      9145.798    1762.814
     2925.346      9220.385    1721.242      2993.808      9228.368    1753.355
     3050.065      9298.968    1711.270      3140.788      9311.728    1751.944
     3189.805      9379.027    1709.853      3275.805      9393.732    1752.871
     3323.136      9457.325    1707.427      3416.938      9477.328    1758.005
     3466.202      9537.106    1709.995      3550.376      9559.560    1758.458
     3607.739      9616.286    1710.038      3692.786      9644.455    1763.597
     3747.147      9694.354    1711.618      3827.854      9727.215    1765.752
     3889.654      9773.314    1717.411      3974.326      9815.416    1778.283
     4033.921      9853.426    1725.831      4103.210      9894.857    1779.528
     4175.545      9932.420    1733.865      4237.900      9976.309    1784.353
     4317.989     10012.422    1744.536      4375.892     10059.505    1797.529
     4461.037     10093.908    1760.418      4503.532     10132.702    1807.377
     4595.771     10168.433    1774.174      4685.258     10257.469    1882.894
     4723.686     10236.698    1781.089      4821.928     10338.005    1906.635
     4937.386     10392.334    1903.889      4961.008     10416.004    1934.946
     5072.701     10465.786    1920.466      5095.032     10486.863    1947.363
     5191.538     10525.345    1913.729      5215.565     10546.923    1938.588
     5312.595     10588.675    1909.646      5351.483     10622.505    1945.214
     5450.685     10667.418    1918.032      5492.601     10703.184    1956.549
     5587.635     10745.313    1919.932      5622.122     10774.347    1956.429
     5726.742     10825.133    1918.711      5759.284     10852.190    1959.846
     5870.499     10908.846    1921.819      5901.180     10934.064    1965.639
     6015.425     10993.477    1928.781      6044.999     11017.566    1970.485
     6156.955     11075.317    1928.413      6183.722     11097.003    1970.317
      635.579      7707.265    1713.813       635.979      7706.566    1747.852
      775.249      7788.301    1713.318       776.654      7787.769    1742.578
      914.796      7869.270    1715.548       918.438      7868.693    1751.528
     1053.743      7950.248    1716.003      1060.739      7949.770    1755.447
     1192.425      8031.175    1718.774      1203.724      8030.922    1760.072
     1331.552      8112.081    1723.901      1345.804      8112.124    1760.948
     1472.191      8193.026    1732.215      1492.410      8193.388    1774.233
     1609.137      8273.909    1733.024      1634.156      8274.587    1777.715
     1745.733      8354.753    1732.994      1780.197      8355.901    1784.401
     1878.929      8435.447    1727.994      1917.424      8436.907    1775.710
     2014.779      8516.200    1726.037      2062.249      8518.193    1776.292
     2155.197      8597.126    1727.952      2200.295      8599.204    1770.247
     2294.494      8677.987    1728.410      2348.633      8680.727    1774.231
     2441.790      8759.272    1733.322      2501.247      8762.589    1779.179
     2598.206      8841.195    1740.405      2649.545      8844.381    1775.752
     2743.048      8922.558    1734.829      2795.642      8926.229    1766.409
     2879.183      9003.351    1723.256      2940.379      9008.244    1754.657
     3004.841      9083.090    1709.955      3083.049      9090.576    1743.864
     3132.871      9162.330    1701.226      3218.998      9172.733    1740.379
     3270.828      9242.250    1700.979      3359.077      9255.607    1743.951
     3406.477      9321.302    1701.869      3500.786      9339.325    1749.744
     3543.071      9399.768    1702.518      3634.553      9421.900    1750.950
     3687.146      9479.657    1705.650      3773.303      9505.792    1754.313
     3826.145      9557.748    1707.445      3920.085      9593.041    1763.820
     3969.897      9636.997    1713.444      4060.511      9679.750    1773.585
     4111.596      9715.034    1719.193      4184.276      9758.030    1773.338
     4253.688      9793.474    1726.183      4317.089      9839.211    1776.111
     4400.688      9876.580    1738.822      4459.244      9926.838    1792.019
     4538.234      9952.527    1746.419      4576.600      9990.657    1789.510
     4670.326     10021.470    1752.057      4702.675     10059.065    1794.689
     4798.122     10087.843    1760.385      4896.421     10208.921    1892.632
     5015.384     10259.279    1893.271      5034.448     10280.577    1919.050
     5150.670     10329.191    1910.563      5176.006     10354.301    1941.068
     5274.032     10391.317    1910.901      5307.706     10422.166    1944.844
     5399.804     10458.240    1913.438      5439.115     10492.531    1948.188
     5531.073     10531.000    1917.660      5572.577     10566.138    1955.040
     5665.243     10606.593    1918.450      5705.164     10639.772    1960.709
     5811.604     10692.380    1927.092      5848.094     10722.247    1973.542
     5955.677     10776.238    1931.508      5987.412     10801.856    1977.269
     6099.189     10859.622    1935.887      6130.276     10884.427    1979.668